 vasp.5.4.4.18Apr17-6-g9f103f2a35 (build Apr 28 2020 14:28:20) gamma-only       
  
 executed on             LinuxIFC date 2021.01.04  16:52:44
 running on   12 total cores
 distrk:  each k-point on   12 cores,    1 groups
 distr:  one band on NCORES_PER_BAND=   2 cores,    6 groups


--------------------------------------------------------------------------------------------------------


 INCAR:
 POTCAR:    PAW_PBE Al 04Jan2001                  
 POTCAR:    PAW_PBE Al 04Jan2001                  
  local pseudopotential read in
  partial core-charges read in
  partial kinetic energy density read in
  atomic valenz-charges read in
  non local Contribution for L=           0  read in
    real space projection operators read in
  non local Contribution for L=           0  read in
    real space projection operators read in
  non local Contribution for L=           1  read in
    real space projection operators read in
  non local Contribution for L=           1  read in
    real space projection operators read in
    PAW grid and wavefunctions read in
 
   number of l-projection  operators is LMAX  =           4
   number of lm-projection operators is LMMAX =           8
 
 Optimization of the real space projectors (new method)

 maximal supplied QI-value         = 19.84
 optimisation between [QCUT,QGAM] = [  7.94, 15.87] = [ 17.64, 70.56] Ry 
 Optimized for a Real-space Cutoff    1.58 Angstroem

   l    n(q)    QCUT    max X(q) W(low)/X(q) W(high)/X(q)  e(spline) 
   0      7     7.937   176.870    0.19E-03    0.23E-03    0.12E-06
   0      7     7.937   105.762    0.19E-03    0.23E-03    0.12E-06
   1      7     7.937    55.370    0.34E-03    0.42E-03    0.15E-06
   1      7     7.937    20.208    0.31E-03    0.40E-03    0.14E-06
  PAW_PBE Al 04Jan2001                  :
 energy of atom  1       EATOM=  -53.5387
 kinetic energy error for atom=    0.0029 (will be added to EATOM!!)
 
 
 POSCAR: XYZ.scell: Al256                        
  positions in direct lattice
  No initial velocities read in
 exchange correlation table for  LEXCH =        8
   RHO(1)=    0.500       N(1)  =     2000
   RHO(2)=  100.500       N(2)  =     4000
 


--------------------------------------------------------------------------------------------------------


 ion  position               nearest neighbor table
   1  0.000  0.000  0.000-   2 2.86   3 2.86   4 2.86  14 2.86  15 2.86  50 2.86  52 2.86  62 2.86
                           195 2.86 196 2.86 207 2.86 244 2.86
   2  0.000  0.125  0.125-   1 2.86   3 2.86   4 2.86   5 2.86   8 2.86  17 2.86  19 2.86  21 2.86
                           195 2.86 196 2.86 200 2.86 211 2.86
   3  0.125  0.000  0.125-   1 2.86   2 2.86   4 2.86   5 2.86   8 2.86  50 2.86  52 2.86  56 2.86
                            65 2.86  66 2.86  69 2.86 114 2.86
   4  0.125  0.125  0.000-   1 2.86   2 2.86   3 2.86  14 2.86  15 2.86  17 2.86  19 2.86  31 2.86
                            65 2.86  66 2.86  78 2.86  81 2.86
   5  0.000  0.000  0.250-   2 2.86   3 2.86   6 2.86   7 2.86   8 2.86  50 2.86  54 2.86  56 2.86
                           195 2.86 199 2.86 200 2.86 248 2.86
   6  0.000  0.125  0.375-   5 2.86   7 2.86   8 2.86   9 2.86  12 2.86  21 2.86  23 2.86  25 2.86
                           199 2.86 200 2.86 204 2.86 215 2.86
   7  0.125  0.000  0.375-   5 2.86   6 2.86   8 2.86   9 2.86  12 2.86  54 2.86  56 2.86  60 2.86
                            69 2.86  70 2.86  73 2.86 118 2.86
   8  0.125  0.125  0.250-   2 2.86   3 2.86   5 2.86   6 2.86   7 2.86  19 2.86  21 2.86  23 2.86
                            66 2.86  69 2.86  70 2.86  85 2.86
   9  0.000  0.000  0.500-   6 2.86   7 2.86  10 2.86  11 2.86  12 2.86  54 2.86  58 2.86  60 2.86
                           199 2.86 203 2.86 204 2.86 252 2.86
  10  0.000  0.125  0.625-   9 2.86  11 2.86  12 2.86  13 2.86  16 2.86  25 2.86  27 2.86  29 2.86
                           203 2.86 204 2.86 208 2.86 219 2.86
  11  0.125  0.000  0.625-   9 2.86  10 2.86  12 2.86  13 2.86  16 2.86  58 2.86  60 2.86  64 2.86
                            73 2.86  74 2.86  77 2.86 122 2.86
  12  0.125  0.125  0.500-   6 2.86   7 2.86   9 2.86  10 2.86  11 2.86  23 2.86  25 2.86  27 2.86
                            70 2.86  73 2.86  74 2.86  89 2.86
  13  0.000  0.000  0.750-  10 2.86  11 2.86  14 2.86  15 2.86  16 2.86  58 2.86  62 2.86  64 2.86
                           203 2.86 207 2.86 208 2.86 256 2.86
  14  0.000  0.125  0.875-   1 2.86   4 2.86  13 2.86  15 2.86  16 2.86  17 2.86  29 2.86  31 2.86
                           196 2.86 207 2.86 208 2.86 223 2.86
  15  0.125  0.000  0.875-   1 2.86   4 2.86  13 2.86  14 2.86  16 2.86  52 2.86  62 2.86  64 2.86
                            65 2.86  77 2.86  78 2.86 126 2.86
  16  0.125  0.125  0.750-  10 2.86  11 2.86  13 2.86  14 2.86  15 2.86  27 2.86  29 2.86  31 2.86
                            74 2.86  77 2.86  78 2.86  93 2.86
  17  0.000  0.250  0.000-   2 2.86   4 2.86  14 2.86  18 2.86  19 2.86  20 2.86  30 2.86  31 2.86
                           196 2.86 211 2.86 212 2.86 223 2.86
  18  0.000  0.375  0.125-  17 2.86  19 2.86  20 2.86  21 2.86  24 2.86  33 2.86  35 2.86  37 2.86
                           211 2.86 212 2.86 216 2.86 227 2.86
  19  0.125  0.250  0.125-   2 2.86   4 2.86   8 2.86  17 2.86  18 2.86  20 2.86  21 2.86  24 2.86
                            66 2.86  81 2.86  82 2.86  85 2.86
  20  0.125  0.375  0.000-  17 2.86  18 2.86  19 2.86  30 2.86  31 2.86  33 2.86  35 2.86  47 2.86
                            81 2.86  82 2.86  94 2.86  97 2.86
  21  0.000  0.250  0.250-   2 2.86   6 2.86   8 2.86  18 2.86  19 2.86  22 2.86  23 2.86  24 2.86
                           200 2.86 211 2.86 215 2.86 216 2.86
  22  0.000  0.375  0.375-  21 2.86  23 2.86  24 2.86  25 2.86  28 2.86  37 2.86  39 2.86  41 2.86
                           215 2.86 216 2.86 220 2.86 231 2.86
  23  0.125  0.250  0.375-   6 2.86   8 2.86  12 2.86  21 2.86  22 2.86  24 2.86  25 2.86  28 2.86
                            70 2.86  85 2.86  86 2.86  89 2.86
  24  0.125  0.375  0.250-  18 2.86  19 2.86  21 2.86  22 2.86  23 2.86  35 2.86  37 2.86  39 2.86
                            82 2.86  85 2.86  86 2.86 101 2.86
  25  0.000  0.250  0.500-   6 2.86  10 2.86  12 2.86  22 2.86  23 2.86  26 2.86  27 2.86  28 2.86
                           204 2.86 215 2.86 219 2.86 220 2.86
  26  0.000  0.375  0.625-  25 2.86  27 2.86  28 2.86  29 2.86  32 2.86  41 2.86  43 2.86  45 2.86
                           219 2.86 220 2.86 224 2.86 235 2.86
  27  0.125  0.250  0.625-  10 2.86  12 2.86  16 2.86  25 2.86  26 2.86  28 2.86  29 2.86  32 2.86
                            74 2.86  89 2.86  90 2.86  93 2.86
  28  0.125  0.375  0.500-  22 2.86  23 2.86  25 2.86  26 2.86  27 2.86  39 2.86  41 2.86  43 2.86
                            86 2.86  89 2.86  90 2.86 105 2.86
  29  0.000  0.250  0.750-  10 2.86  14 2.86  16 2.86  26 2.86  27 2.86  30 2.86  31 2.86  32 2.86
                           208 2.86 219 2.86 223 2.86 224 2.86
  30  0.000  0.375  0.875-  17 2.86  20 2.86  29 2.86  31 2.86  32 2.86  33 2.86  45 2.86  47 2.86
                           212 2.86 223 2.86 224 2.86 239 2.86
  31  0.125  0.250  0.875-   4 2.86  14 2.86  16 2.86  17 2.86  20 2.86  29 2.86  30 2.86  32 2.86
                            78 2.86  81 2.86  93 2.86  94 2.86
  32  0.125  0.375  0.750-  26 2.86  27 2.86  29 2.86  30 2.86  31 2.86  43 2.86  45 2.86  47 2.86
                            90 2.86  93 2.86  94 2.86 109 2.86
  33  0.000  0.500  0.000-  18 2.86  20 2.86  30 2.86  34 2.86  35 2.86  36 2.86  46 2.86  47 2.86
                           212 2.86 227 2.86 228 2.86 239 2.86
  34  0.000  0.625  0.125-  33 2.86  35 2.86  36 2.86  37 2.86  40 2.86  49 2.86  51 2.86  53 2.86
                           227 2.86 228 2.86 232 2.86 243 2.86
  35  0.125  0.500  0.125-  18 2.86  20 2.86  24 2.86  33 2.86  34 2.86  36 2.86  37 2.86  40 2.86
                            82 2.86  97 2.86  98 2.86 101 2.86
  36  0.125  0.625  0.000-  33 2.86  34 2.86  35 2.86  46 2.86  47 2.86  49 2.86  51 2.86  63 2.86
                            97 2.86  98 2.86 110 2.86 113 2.86
  37  0.000  0.500  0.250-  18 2.86  22 2.86  24 2.86  34 2.86  35 2.86  38 2.86  39 2.86  40 2.86
                           216 2.86 227 2.86 231 2.86 232 2.86
  38  0.000  0.625  0.375-  37 2.86  39 2.86  40 2.86  41 2.86  44 2.86  53 2.86  55 2.86  57 2.86
                           231 2.86 232 2.86 236 2.86 247 2.86
  39  0.125  0.500  0.375-  22 2.86  24 2.86  28 2.86  37 2.86  38 2.86  40 2.86  41 2.86  44 2.86
                            86 2.86 101 2.86 102 2.86 105 2.86
  40  0.125  0.625  0.250-  34 2.86  35 2.86  37 2.86  38 2.86  39 2.86  51 2.86  53 2.86  55 2.86
                            98 2.86 101 2.86 102 2.86 117 2.86
  41  0.000  0.500  0.500-  22 2.86  26 2.86  28 2.86  38 2.86  39 2.86  42 2.86  43 2.86  44 2.86
                           220 2.86 231 2.86 235 2.86 236 2.86
  42  0.000  0.625  0.625-  41 2.86  43 2.86  44 2.86  45 2.86  48 2.86  57 2.86  59 2.86  61 2.86
                           235 2.86 236 2.86 240 2.86 251 2.86
  43  0.125  0.500  0.625-  26 2.86  28 2.86  32 2.86  41 2.86  42 2.86  44 2.86  45 2.86  48 2.86
                            90 2.86 105 2.86 106 2.86 109 2.86
  44  0.125  0.625  0.500-  38 2.86  39 2.86  41 2.86  42 2.86  43 2.86  55 2.86  57 2.86  59 2.86
                           102 2.86 105 2.86 106 2.86 121 2.86
  45  0.000  0.500  0.750-  26 2.86  30 2.86  32 2.86  42 2.86  43 2.86  46 2.86  47 2.86  48 2.86
                           224 2.86 235 2.86 239 2.86 240 2.86
  46  0.000  0.625  0.875-  33 2.86  36 2.86  45 2.86  47 2.86  48 2.86  49 2.86  61 2.86  63 2.86
                           228 2.86 239 2.86 240 2.86 255 2.86
  47  0.125  0.500  0.875-  20 2.86  30 2.86  32 2.86  33 2.86  36 2.86  45 2.86  46 2.86  48 2.86
                            94 2.86  97 2.86 109 2.86 110 2.86
  48  0.125  0.625  0.750-  42 2.86  43 2.86  45 2.86  46 2.86  47 2.86  59 2.86  61 2.86  63 2.86
                           106 2.86 109 2.86 110 2.86 125 2.86
  49  0.000  0.750  0.000-  34 2.86  36 2.86  46 2.86  50 2.86  51 2.86  52 2.86  62 2.86  63 2.86
                           228 2.86 243 2.86 244 2.86 255 2.86
  50  0.000  0.875  0.125-   1 2.86   3 2.86   5 2.86  49 2.86  51 2.86  52 2.86  53 2.86  56 2.86
                           195 2.86 243 2.86 244 2.86 248 2.86
  51  0.125  0.750  0.125-  34 2.86  36 2.86  40 2.86  49 2.86  50 2.86  52 2.86  53 2.86  56 2.86
                            98 2.86 113 2.86 114 2.86 117 2.86
  52  0.125  0.875  0.000-   1 2.86   3 2.86  15 2.86  49 2.86  50 2.86  51 2.86  62 2.86  63 2.86
                            65 2.86 113 2.86 114 2.86 126 2.86
  53  0.000  0.750  0.250-  34 2.86  38 2.86  40 2.86  50 2.86  51 2.86  54 2.86  55 2.86  56 2.86
                           232 2.86 243 2.86 247 2.86 248 2.86
  54  0.000  0.875  0.375-   5 2.86   7 2.86   9 2.86  53 2.86  55 2.86  56 2.86  57 2.86  60 2.86
                           199 2.86 247 2.86 248 2.86 252 2.86
  55  0.125  0.750  0.375-  38 2.86  40 2.86  44 2.86  53 2.86  54 2.86  56 2.86  57 2.86  60 2.86
                           102 2.86 117 2.86 118 2.86 121 2.86
  56  0.125  0.875  0.250-   3 2.86   5 2.86   7 2.86  50 2.86  51 2.86  53 2.86  54 2.86  55 2.86
                            69 2.86 114 2.86 117 2.86 118 2.86
  57  0.000  0.750  0.500-  38 2.86  42 2.86  44 2.86  54 2.86  55 2.86  58 2.86  59 2.86  60 2.86
                           236 2.86 247 2.86 251 2.86 252 2.86
  58  0.000  0.875  0.625-   9 2.86  11 2.86  13 2.86  57 2.86  59 2.86  60 2.86  61 2.86  64 2.86
                           203 2.86 251 2.86 252 2.86 256 2.86
  59  0.125  0.750  0.625-  42 2.86  44 2.86  48 2.86  57 2.86  58 2.86  60 2.86  61 2.86  64 2.86
                           106 2.86 121 2.86 122 2.86 125 2.86
  60  0.125  0.875  0.500-   7 2.86   9 2.86  11 2.86  54 2.86  55 2.86  57 2.86  58 2.86  59 2.86
                            73 2.86 118 2.86 121 2.86 122 2.86
  61  0.000  0.750  0.750-  42 2.86  46 2.86  48 2.86  58 2.86  59 2.86  62 2.86  63 2.86  64 2.86
                           240 2.86 251 2.86 255 2.86 256 2.86
  62  0.000  0.875  0.875-   1 2.86  13 2.86  15 2.86  49 2.86  52 2.86  61 2.86  63 2.86  64 2.86
                           207 2.86 244 2.86 255 2.86 256 2.86
  63  0.125  0.750  0.875-  36 2.86  46 2.86  48 2.86  49 2.86  52 2.86  61 2.86  62 2.86  64 2.86
                           110 2.86 113 2.86 125 2.86 126 2.86
  64  0.125  0.875  0.750-  11 2.86  13 2.86  15 2.86  58 2.86  59 2.86  61 2.86  62 2.86  63 2.86
                            77 2.86 122 2.86 125 2.86 126 2.86
  65  0.250  0.000  0.000-   3 2.86   4 2.86  15 2.86  52 2.86  66 2.86  67 2.86  68 2.86  78 2.86
                            79 2.86 114 2.86 116 2.86 126 2.86
  66  0.250  0.125  0.125-   3 2.86   4 2.86   8 2.86  19 2.86  65 2.86  67 2.86  68 2.86  69 2.86
                            72 2.86  81 2.86  83 2.86  85 2.86
  67  0.375  0.000  0.125-  65 2.86  66 2.86  68 2.86  69 2.86  72 2.86 114 2.86 116 2.86 120 2.86
                           129 2.86 130 2.86 133 2.86 178 2.86
  68  0.375  0.125  0.000-  65 2.86  66 2.86  67 2.86  78 2.86  79 2.86  81 2.86  83 2.86  95 2.86
                           129 2.86 130 2.86 142 2.86 145 2.86
  69  0.250  0.000  0.250-   3 2.86   7 2.86   8 2.86  56 2.86  66 2.86  67 2.86  70 2.86  71 2.86
                            72 2.86 114 2.86 118 2.86 120 2.86
  70  0.250  0.125  0.375-   7 2.86   8 2.86  12 2.86  23 2.86  69 2.86  71 2.86  72 2.86  73 2.86
                            76 2.86  85 2.86  87 2.86  89 2.86
  71  0.375  0.000  0.375-  69 2.86  70 2.86  72 2.86  73 2.86  76 2.86 118 2.86 120 2.86 124 2.86
                           133 2.86 134 2.86 137 2.86 182 2.86
  72  0.375  0.125  0.250-  66 2.86  67 2.86  69 2.86  70 2.86  71 2.86  83 2.86  85 2.86  87 2.86
                           130 2.86 133 2.86 134 2.86 149 2.86
  73  0.250  0.000  0.500-   7 2.86  11 2.86  12 2.86  60 2.86  70 2.86  71 2.86  74 2.86  75 2.86
                            76 2.86 118 2.86 122 2.86 124 2.86
  74  0.250  0.125  0.625-  11 2.86  12 2.86  16 2.86  27 2.86  73 2.86  75 2.86  76 2.86  77 2.86
                            80 2.86  89 2.86  91 2.86  93 2.86
  75  0.375  0.000  0.625-  73 2.86  74 2.86  76 2.86  77 2.86  80 2.86 122 2.86 124 2.86 128 2.86
                           137 2.86 138 2.86 141 2.86 186 2.86
  76  0.375  0.125  0.500-  70 2.86  71 2.86  73 2.86  74 2.86  75 2.86  87 2.86  89 2.86  91 2.86
                           134 2.86 137 2.86 138 2.86 153 2.86
  77  0.250  0.000  0.750-  11 2.86  15 2.86  16 2.86  64 2.86  74 2.86  75 2.86  78 2.86  79 2.86
                            80 2.86 122 2.86 126 2.86 128 2.86
  78  0.250  0.125  0.875-   4 2.86  15 2.86  16 2.86  31 2.86  65 2.86  68 2.86  77 2.86  79 2.86
                            80 2.86  81 2.86  93 2.86  95 2.86
  79  0.375  0.000  0.875-  65 2.86  68 2.86  77 2.86  78 2.86  80 2.86 116 2.86 126 2.86 128 2.86
                           129 2.86 141 2.86 142 2.86 190 2.86
  80  0.375  0.125  0.750-  74 2.86  75 2.86  77 2.86  78 2.86  79 2.86  91 2.86  93 2.86  95 2.86
                           138 2.86 141 2.86 142 2.86 157 2.86
  81  0.250  0.250  0.000-   4 2.86  19 2.86  20 2.86  31 2.86  66 2.86  68 2.86  78 2.86  82 2.86
                            83 2.86  84 2.86  94 2.86  95 2.86
  82  0.250  0.375  0.125-  19 2.86  20 2.86  24 2.86  35 2.86  81 2.86  83 2.86  84 2.86  85 2.86
                            88 2.86  97 2.86  99 2.86 101 2.86
  83  0.375  0.250  0.125-  66 2.86  68 2.86  72 2.86  81 2.86  82 2.86  84 2.86  85 2.86  88 2.86
                           130 2.86 145 2.86 146 2.86 149 2.86
  84  0.375  0.375  0.000-  81 2.86  82 2.86  83 2.86  94 2.86  95 2.86  97 2.86  99 2.86 111 2.86
                           145 2.86 146 2.86 158 2.86 161 2.86
  85  0.250  0.250  0.250-   8 2.86  19 2.86  23 2.86  24 2.86  66 2.86  70 2.86  72 2.86  82 2.86
                            83 2.86  86 2.86  87 2.86  88 2.86
  86  0.250  0.375  0.375-  23 2.86  24 2.86  28 2.86  39 2.86  85 2.86  87 2.86  88 2.86  89 2.86
                            92 2.86 101 2.86 103 2.86 105 2.86
  87  0.375  0.250  0.375-  70 2.86  72 2.86  76 2.86  85 2.86  86 2.86  88 2.86  89 2.86  92 2.86
                           134 2.86 149 2.86 150 2.86 153 2.86
  88  0.375  0.375  0.250-  82 2.86  83 2.86  85 2.86  86 2.86  87 2.86  99 2.86 101 2.86 103 2.86
                           146 2.86 149 2.86 150 2.86 165 2.86
  89  0.250  0.250  0.500-  12 2.86  23 2.86  27 2.86  28 2.86  70 2.86  74 2.86  76 2.86  86 2.86
                            87 2.86  90 2.86  91 2.86  92 2.86
  90  0.250  0.375  0.625-  27 2.86  28 2.86  32 2.86  43 2.86  89 2.86  91 2.86  92 2.86  93 2.86
                            96 2.86 105 2.86 107 2.86 109 2.86
  91  0.375  0.250  0.625-  74 2.86  76 2.86  80 2.86  89 2.86  90 2.86  92 2.86  93 2.86  96 2.86
                           138 2.86 153 2.86 154 2.86 157 2.86
  92  0.375  0.375  0.500-  86 2.86  87 2.86  89 2.86  90 2.86  91 2.86 103 2.86 105 2.86 107 2.86
                           150 2.86 153 2.86 154 2.86 169 2.86
  93  0.250  0.250  0.750-  16 2.86  27 2.86  31 2.86  32 2.86  74 2.86  78 2.86  80 2.86  90 2.86
                            91 2.86  94 2.86  95 2.86  96 2.86
  94  0.250  0.375  0.875-  20 2.86  31 2.86  32 2.86  47 2.86  81 2.86  84 2.86  93 2.86  95 2.86
                            96 2.86  97 2.86 109 2.86 111 2.86
  95  0.375  0.250  0.875-  68 2.86  78 2.86  80 2.86  81 2.86  84 2.86  93 2.86  94 2.86  96 2.86
                           142 2.86 145 2.86 157 2.86 158 2.86
  96  0.375  0.375  0.750-  90 2.86  91 2.86  93 2.86  94 2.86  95 2.86 107 2.86 109 2.86 111 2.86
                           154 2.86 157 2.86 158 2.86 173 2.86
  97  0.250  0.500  0.000-  20 2.86  35 2.86  36 2.86  47 2.86  82 2.86  84 2.86  94 2.86  98 2.86
                            99 2.86 100 2.86 110 2.86 111 2.86
  98  0.250  0.625  0.125-  35 2.86  36 2.86  40 2.86  51 2.86  97 2.86  99 2.86 100 2.86 101 2.86
                           104 2.86 113 2.86 115 2.86 117 2.86
  99  0.375  0.500  0.125-  82 2.86  84 2.86  88 2.86  97 2.86  98 2.86 100 2.86 101 2.86 104 2.86
                           146 2.86 161 2.86 162 2.86 165 2.86
 100  0.375  0.625  0.000-  97 2.86  98 2.86  99 2.86 110 2.86 111 2.86 113 2.86 115 2.86 127 2.86
                           161 2.86 162 2.86 174 2.86 177 2.86
 101  0.250  0.500  0.250-  24 2.86  35 2.86  39 2.86  40 2.86  82 2.86  86 2.86  88 2.86  98 2.86
                            99 2.86 102 2.86 103 2.86 104 2.86
 102  0.250  0.625  0.375-  39 2.86  40 2.86  44 2.86  55 2.86 101 2.86 103 2.86 104 2.86 105 2.86
                           108 2.86 117 2.86 119 2.86 121 2.86
 103  0.375  0.500  0.375-  86 2.86  88 2.86  92 2.86 101 2.86 102 2.86 104 2.86 105 2.86 108 2.86
                           150 2.86 165 2.86 166 2.86 169 2.86
 104  0.375  0.625  0.250-  98 2.86  99 2.86 101 2.86 102 2.86 103 2.86 115 2.86 117 2.86 119 2.86
                           162 2.86 165 2.86 166 2.86 181 2.86
 105  0.250  0.500  0.500-  28 2.86  39 2.86  43 2.86  44 2.86  86 2.86  90 2.86  92 2.86 102 2.86
                           103 2.86 106 2.86 107 2.86 108 2.86
 106  0.250  0.625  0.625-  43 2.86  44 2.86  48 2.86  59 2.86 105 2.86 107 2.86 108 2.86 109 2.86
                           112 2.86 121 2.86 123 2.86 125 2.86
 107  0.375  0.500  0.625-  90 2.86  92 2.86  96 2.86 105 2.86 106 2.86 108 2.86 109 2.86 112 2.86
                           154 2.86 169 2.86 170 2.86 173 2.86
 108  0.375  0.625  0.500- 102 2.86 103 2.86 105 2.86 106 2.86 107 2.86 119 2.86 121 2.86 123 2.86
                           166 2.86 169 2.86 170 2.86 185 2.86
 109  0.250  0.500  0.750-  32 2.86  43 2.86  47 2.86  48 2.86  90 2.86  94 2.86  96 2.86 106 2.86
                           107 2.86 110 2.86 111 2.86 112 2.86
 110  0.250  0.625  0.875-  36 2.86  47 2.86  48 2.86  63 2.86  97 2.86 100 2.86 109 2.86 111 2.86
                           112 2.86 113 2.86 125 2.86 127 2.86
 111  0.375  0.500  0.875-  84 2.86  94 2.86  96 2.86  97 2.86 100 2.86 109 2.86 110 2.86 112 2.86
                           158 2.86 161 2.86 173 2.86 174 2.86
 112  0.375  0.625  0.750- 106 2.86 107 2.86 109 2.86 110 2.86 111 2.86 123 2.86 125 2.86 127 2.86
                           170 2.86 173 2.86 174 2.86 189 2.86
 113  0.250  0.750  0.000-  36 2.86  51 2.86  52 2.86  63 2.86  98 2.86 100 2.86 110 2.86 114 2.86
                           115 2.86 116 2.86 126 2.86 127 2.86
 114  0.250  0.875  0.125-   3 2.86  51 2.86  52 2.86  56 2.86  65 2.86  67 2.86  69 2.86 113 2.86
                           115 2.86 116 2.86 117 2.86 120 2.86
 115  0.375  0.750  0.125-  98 2.86 100 2.86 104 2.86 113 2.86 114 2.86 116 2.86 117 2.86 120 2.86
                           162 2.86 177 2.86 178 2.86 181 2.86
 116  0.375  0.875  0.000-  65 2.86  67 2.86  79 2.86 113 2.86 114 2.86 115 2.86 126 2.86 127 2.86
                           129 2.86 177 2.86 178 2.86 190 2.86
 117  0.250  0.750  0.250-  40 2.86  51 2.86  55 2.86  56 2.86  98 2.86 102 2.86 104 2.86 114 2.86
                           115 2.86 118 2.86 119 2.86 120 2.86
 118  0.250  0.875  0.375-   7 2.86  55 2.86  56 2.86  60 2.86  69 2.86  71 2.86  73 2.86 117 2.86
                           119 2.86 120 2.86 121 2.86 124 2.86
 119  0.375  0.750  0.375- 102 2.86 104 2.86 108 2.86 117 2.86 118 2.86 120 2.86 121 2.86 124 2.86
                           166 2.86 181 2.86 182 2.86 185 2.86
 120  0.375  0.875  0.250-  67 2.86  69 2.86  71 2.86 114 2.86 115 2.86 117 2.86 118 2.86 119 2.86
                           133 2.86 178 2.86 181 2.86 182 2.86
 121  0.250  0.750  0.500-  44 2.86  55 2.86  59 2.86  60 2.86 102 2.86 106 2.86 108 2.86 118 2.86
                           119 2.86 122 2.86 123 2.86 124 2.86
 122  0.250  0.875  0.625-  11 2.86  59 2.86  60 2.86  64 2.86  73 2.86  75 2.86  77 2.86 121 2.86
                           123 2.86 124 2.86 125 2.86 128 2.86
 123  0.375  0.750  0.625- 106 2.86 108 2.86 112 2.86 121 2.86 122 2.86 124 2.86 125 2.86 128 2.86
                           170 2.86 185 2.86 186 2.86 189 2.86
 124  0.375  0.875  0.500-  71 2.86  73 2.86  75 2.86 118 2.86 119 2.86 121 2.86 122 2.86 123 2.86
                           137 2.86 182 2.86 185 2.86 186 2.86
 125  0.250  0.750  0.750-  48 2.86  59 2.86  63 2.86  64 2.86 106 2.86 110 2.86 112 2.86 122 2.86
                           123 2.86 126 2.86 127 2.86 128 2.86
 126  0.250  0.875  0.875-  15 2.86  52 2.86  63 2.86  64 2.86  65 2.86  77 2.86  79 2.86 113 2.86
                           116 2.86 125 2.86 127 2.86 128 2.86
 127  0.375  0.750  0.875- 100 2.86 110 2.86 112 2.86 113 2.86 116 2.86 125 2.86 126 2.86 128 2.86
                           174 2.86 177 2.86 189 2.86 190 2.86
 128  0.375  0.875  0.750-  75 2.86  77 2.86  79 2.86 122 2.86 123 2.86 125 2.86 126 2.86 127 2.86
                           141 2.86 186 2.86 189 2.86 190 2.86
 129  0.500  0.000  0.000-  67 2.86  68 2.86  79 2.86 116 2.86 130 2.86 131 2.86 132 2.86 142 2.86
                           143 2.86 178 2.86 180 2.86 190 2.86
 130  0.500  0.125  0.125-  67 2.86  68 2.86  72 2.86  83 2.86 129 2.86 131 2.86 132 2.86 133 2.86
                           136 2.86 145 2.86 147 2.86 149 2.86
 131  0.625  0.000  0.125- 129 2.86 130 2.86 132 2.86 133 2.86 136 2.86 178 2.86 180 2.86 184 2.86
                           193 2.86 194 2.86 197 2.86 242 2.86
 132  0.625  0.125  0.000- 129 2.86 130 2.86 131 2.86 142 2.86 143 2.86 145 2.86 147 2.86 159 2.86
                           193 2.86 194 2.86 206 2.86 209 2.86
 133  0.500  0.000  0.250-  67 2.86  71 2.86  72 2.86 120 2.86 130 2.86 131 2.86 134 2.86 135 2.86
                           136 2.86 178 2.86 182 2.86 184 2.86
 134  0.500  0.125  0.375-  71 2.86  72 2.86  76 2.86  87 2.86 133 2.86 135 2.86 136 2.86 137 2.86
                           140 2.86 149 2.86 151 2.86 153 2.86
 135  0.625  0.000  0.375- 133 2.86 134 2.86 136 2.86 137 2.86 140 2.86 182 2.86 184 2.86 188 2.86
                           197 2.86 198 2.86 201 2.86 246 2.86
 136  0.625  0.125  0.250- 130 2.86 131 2.86 133 2.86 134 2.86 135 2.86 147 2.86 149 2.86 151 2.86
                           194 2.86 197 2.86 198 2.86 213 2.86
 137  0.500  0.000  0.500-  71 2.86  75 2.86  76 2.86 124 2.86 134 2.86 135 2.86 138 2.86 139 2.86
                           140 2.86 182 2.86 186 2.86 188 2.86
 138  0.500  0.125  0.625-  75 2.86  76 2.86  80 2.86  91 2.86 137 2.86 139 2.86 140 2.86 141 2.86
                           144 2.86 153 2.86 155 2.86 157 2.86
 139  0.625  0.000  0.625- 137 2.86 138 2.86 140 2.86 141 2.86 144 2.86 186 2.86 188 2.86 192 2.86
                           201 2.86 202 2.86 205 2.86 250 2.86
 140  0.625  0.125  0.500- 134 2.86 135 2.86 137 2.86 138 2.86 139 2.86 151 2.86 153 2.86 155 2.86
                           198 2.86 201 2.86 202 2.86 217 2.86
 141  0.500  0.000  0.750-  75 2.86  79 2.86  80 2.86 128 2.86 138 2.86 139 2.86 142 2.86 143 2.86
                           144 2.86 186 2.86 190 2.86 192 2.86
 142  0.500  0.125  0.875-  68 2.86  79 2.86  80 2.86  95 2.86 129 2.86 132 2.86 141 2.86 143 2.86
                           144 2.86 145 2.86 157 2.86 159 2.86
 143  0.625  0.000  0.875- 129 2.86 132 2.86 141 2.86 142 2.86 144 2.86 180 2.86 190 2.86 192 2.86
                           193 2.86 205 2.86 206 2.86 254 2.86
 144  0.625  0.125  0.750- 138 2.86 139 2.86 141 2.86 142 2.86 143 2.86 155 2.86 157 2.86 159 2.86
                           202 2.86 205 2.86 206 2.86 221 2.86
 145  0.500  0.250  0.000-  68 2.86  83 2.86  84 2.86  95 2.86 130 2.86 132 2.86 142 2.86 146 2.86
                           147 2.86 148 2.86 158 2.86 159 2.86
 146  0.500  0.375  0.125-  83 2.86  84 2.86  88 2.86  99 2.86 145 2.86 147 2.86 148 2.86 149 2.86
                           152 2.86 161 2.86 163 2.86 165 2.86
 147  0.625  0.250  0.125- 130 2.86 132 2.86 136 2.86 145 2.86 146 2.86 148 2.86 149 2.86 152 2.86
                           194 2.86 209 2.86 210 2.86 213 2.86
 148  0.625  0.375  0.000- 145 2.86 146 2.86 147 2.86 158 2.86 159 2.86 161 2.86 163 2.86 175 2.86
                           209 2.86 210 2.86 222 2.86 225 2.86
 149  0.500  0.250  0.250-  72 2.86  83 2.86  87 2.86  88 2.86 130 2.86 134 2.86 136 2.86 146 2.86
                           147 2.86 150 2.86 151 2.86 152 2.86
 150  0.500  0.375  0.375-  87 2.86  88 2.86  92 2.86 103 2.86 149 2.86 151 2.86 152 2.86 153 2.86
                           156 2.86 165 2.86 167 2.86 169 2.86
 151  0.625  0.250  0.375- 134 2.86 136 2.86 140 2.86 149 2.86 150 2.86 152 2.86 153 2.86 156 2.86
                           198 2.86 213 2.86 214 2.86 217 2.86
 152  0.625  0.375  0.250- 146 2.86 147 2.86 149 2.86 150 2.86 151 2.86 163 2.86 165 2.86 167 2.86
                           210 2.86 213 2.86 214 2.86 229 2.86
 153  0.500  0.250  0.500-  76 2.86  87 2.86  91 2.86  92 2.86 134 2.86 138 2.86 140 2.86 150 2.86
                           151 2.86 154 2.86 155 2.86 156 2.86
 154  0.500  0.375  0.625-  91 2.86  92 2.86  96 2.86 107 2.86 153 2.86 155 2.86 156 2.86 157 2.86
                           160 2.86 169 2.86 171 2.86 173 2.86
 155  0.625  0.250  0.625- 138 2.86 140 2.86 144 2.86 153 2.86 154 2.86 156 2.86 157 2.86 160 2.86
                           202 2.86 217 2.86 218 2.86 221 2.86
 156  0.625  0.375  0.500- 150 2.86 151 2.86 153 2.86 154 2.86 155 2.86 167 2.86 169 2.86 171 2.86
                           214 2.86 217 2.86 218 2.86 233 2.86
 157  0.500  0.250  0.750-  80 2.86  91 2.86  95 2.86  96 2.86 138 2.86 142 2.86 144 2.86 154 2.86
                           155 2.86 158 2.86 159 2.86 160 2.86
 158  0.500  0.375  0.875-  84 2.86  95 2.86  96 2.86 111 2.86 145 2.86 148 2.86 157 2.86 159 2.86
                           160 2.86 161 2.86 173 2.86 175 2.86
 159  0.625  0.250  0.875- 132 2.86 142 2.86 144 2.86 145 2.86 148 2.86 157 2.86 158 2.86 160 2.86
                           206 2.86 209 2.86 221 2.86 222 2.86
 160  0.625  0.375  0.750- 154 2.86 155 2.86 157 2.86 158 2.86 159 2.86 171 2.86 173 2.86 175 2.86
                           218 2.86 221 2.86 222 2.86 237 2.86
 161  0.500  0.500  0.000-  84 2.86  99 2.86 100 2.86 111 2.86 146 2.86 148 2.86 158 2.86 162 2.86
                           163 2.86 164 2.86 174 2.86 175 2.86
 162  0.500  0.625  0.125-  99 2.86 100 2.86 104 2.86 115 2.86 161 2.86 163 2.86 164 2.86 165 2.86
                           168 2.86 177 2.86 179 2.86 181 2.86
 163  0.625  0.500  0.125- 146 2.86 148 2.86 152 2.86 161 2.86 162 2.86 164 2.86 165 2.86 168 2.86
                           210 2.86 225 2.86 226 2.86 229 2.86
 164  0.625  0.625  0.000- 161 2.86 162 2.86 163 2.86 174 2.86 175 2.86 177 2.86 179 2.86 191 2.86
                           225 2.86 226 2.86 238 2.86 241 2.86
 165  0.500  0.500  0.250-  88 2.86  99 2.86 103 2.86 104 2.86 146 2.86 150 2.86 152 2.86 162 2.86
                           163 2.86 166 2.86 167 2.86 168 2.86
 166  0.500  0.625  0.375- 103 2.86 104 2.86 108 2.86 119 2.86 165 2.86 167 2.86 168 2.86 169 2.86
                           172 2.86 181 2.86 183 2.86 185 2.86
 167  0.625  0.500  0.375- 150 2.86 152 2.86 156 2.86 165 2.86 166 2.86 168 2.86 169 2.86 172 2.86
                           214 2.86 229 2.86 230 2.86 233 2.86
 168  0.625  0.625  0.250- 162 2.86 163 2.86 165 2.86 166 2.86 167 2.86 179 2.86 181 2.86 183 2.86
                           226 2.86 229 2.86 230 2.86 245 2.86
 169  0.500  0.500  0.500-  92 2.86 103 2.86 107 2.86 108 2.86 150 2.86 154 2.86 156 2.86 166 2.86
                           167 2.86 170 2.86 171 2.86 172 2.86
 170  0.500  0.625  0.625- 107 2.86 108 2.86 112 2.86 123 2.86 169 2.86 171 2.86 172 2.86 173 2.86
                           176 2.86 185 2.86 187 2.86 189 2.86
 171  0.625  0.500  0.625- 154 2.86 156 2.86 160 2.86 169 2.86 170 2.86 172 2.86 173 2.86 176 2.86
                           218 2.86 233 2.86 234 2.86 237 2.86
 172  0.625  0.625  0.500- 166 2.86 167 2.86 169 2.86 170 2.86 171 2.86 183 2.86 185 2.86 187 2.86
                           230 2.86 233 2.86 234 2.86 249 2.86
 173  0.500  0.500  0.750-  96 2.86 107 2.86 111 2.86 112 2.86 154 2.86 158 2.86 160 2.86 170 2.86
                           171 2.86 174 2.86 175 2.86 176 2.86
 174  0.500  0.625  0.875- 100 2.86 111 2.86 112 2.86 127 2.86 161 2.86 164 2.86 173 2.86 175 2.86
                           176 2.86 177 2.86 189 2.86 191 2.86
 175  0.625  0.500  0.875- 148 2.86 158 2.86 160 2.86 161 2.86 164 2.86 173 2.86 174 2.86 176 2.86
                           222 2.86 225 2.86 237 2.86 238 2.86
 176  0.625  0.625  0.750- 170 2.86 171 2.86 173 2.86 174 2.86 175 2.86 187 2.86 189 2.86 191 2.86
                           234 2.86 237 2.86 238 2.86 253 2.86
 177  0.500  0.750  0.000- 100 2.86 115 2.86 116 2.86 127 2.86 162 2.86 164 2.86 174 2.86 178 2.86
                           179 2.86 180 2.86 190 2.86 191 2.86
 178  0.500  0.875  0.125-  67 2.86 115 2.86 116 2.86 120 2.86 129 2.86 131 2.86 133 2.86 177 2.86
                           179 2.86 180 2.86 181 2.86 184 2.86
 179  0.625  0.750  0.125- 162 2.86 164 2.86 168 2.86 177 2.86 178 2.86 180 2.86 181 2.86 184 2.86
                           226 2.86 241 2.86 242 2.86 245 2.86
 180  0.625  0.875  0.000- 129 2.86 131 2.86 143 2.86 177 2.86 178 2.86 179 2.86 190 2.86 191 2.86
                           193 2.86 241 2.86 242 2.86 254 2.86
 181  0.500  0.750  0.250- 104 2.86 115 2.86 119 2.86 120 2.86 162 2.86 166 2.86 168 2.86 178 2.86
                           179 2.86 182 2.86 183 2.86 184 2.86
 182  0.500  0.875  0.375-  71 2.86 119 2.86 120 2.86 124 2.86 133 2.86 135 2.86 137 2.86 181 2.86
                           183 2.86 184 2.86 185 2.86 188 2.86
 183  0.625  0.750  0.375- 166 2.86 168 2.86 172 2.86 181 2.86 182 2.86 184 2.86 185 2.86 188 2.86
                           230 2.86 245 2.86 246 2.86 249 2.86
 184  0.625  0.875  0.250- 131 2.86 133 2.86 135 2.86 178 2.86 179 2.86 181 2.86 182 2.86 183 2.86
                           197 2.86 242 2.86 245 2.86 246 2.86
 185  0.500  0.750  0.500- 108 2.86 119 2.86 123 2.86 124 2.86 166 2.86 170 2.86 172 2.86 182 2.86
                           183 2.86 186 2.86 187 2.86 188 2.86
 186  0.500  0.875  0.625-  75 2.86 123 2.86 124 2.86 128 2.86 137 2.86 139 2.86 141 2.86 185 2.86
                           187 2.86 188 2.86 189 2.86 192 2.86
 187  0.625  0.750  0.625- 170 2.86 172 2.86 176 2.86 185 2.86 186 2.86 188 2.86 189 2.86 192 2.86
                           234 2.86 249 2.86 250 2.86 253 2.86
 188  0.625  0.875  0.500- 135 2.86 137 2.86 139 2.86 182 2.86 183 2.86 185 2.86 186 2.86 187 2.86
                           201 2.86 246 2.86 249 2.86 250 2.86
 189  0.500  0.750  0.750- 112 2.86 123 2.86 127 2.86 128 2.86 170 2.86 174 2.86 176 2.86 186 2.86
                           187 2.86 190 2.86 191 2.86 192 2.86
 190  0.500  0.875  0.875-  79 2.86 116 2.86 127 2.86 128 2.86 129 2.86 141 2.86 143 2.86 177 2.86
                           180 2.86 189 2.86 191 2.86 192 2.86
 191  0.625  0.750  0.875- 164 2.86 174 2.86 176 2.86 177 2.86 180 2.86 189 2.86 190 2.86 192 2.86
                           238 2.86 241 2.86 253 2.86 254 2.86
 192  0.625  0.875  0.750- 139 2.86 141 2.86 143 2.86 186 2.86 187 2.86 189 2.86 190 2.86 191 2.86
                           205 2.86 250 2.86 253 2.86 254 2.86
 193  0.750  0.000  0.000- 131 2.86 132 2.86 143 2.86 180 2.86 194 2.86 195 2.86 196 2.86 206 2.86
                           207 2.86 242 2.86 244 2.86 254 2.86
 194  0.750  0.125  0.125- 131 2.86 132 2.86 136 2.86 147 2.86 193 2.86 195 2.86 196 2.86 197 2.86
                           200 2.86 209 2.86 211 2.86 213 2.86
 195  0.875  0.000  0.125-   1 2.86   2 2.86   5 2.86  50 2.86 193 2.86 194 2.86 196 2.86 197 2.86
                           200 2.86 242 2.86 244 2.86 248 2.86
 196  0.875  0.125  0.000-   1 2.86   2 2.86  14 2.86  17 2.86 193 2.86 194 2.86 195 2.86 206 2.86
                           207 2.86 209 2.86 211 2.86 223 2.86
 197  0.750  0.000  0.250- 131 2.86 135 2.86 136 2.86 184 2.86 194 2.86 195 2.86 198 2.86 199 2.86
                           200 2.86 242 2.86 246 2.86 248 2.86
 198  0.750  0.125  0.375- 135 2.86 136 2.86 140 2.86 151 2.86 197 2.86 199 2.86 200 2.86 201 2.86
                           204 2.86 213 2.86 215 2.86 217 2.86
 199  0.875  0.000  0.375-   5 2.86   6 2.86   9 2.86  54 2.86 197 2.86 198 2.86 200 2.86 201 2.86
                           204 2.86 246 2.86 248 2.86 252 2.86
 200  0.875  0.125  0.250-   2 2.86   5 2.86   6 2.86  21 2.86 194 2.86 195 2.86 197 2.86 198 2.86
                           199 2.86 211 2.86 213 2.86 215 2.86
 201  0.750  0.000  0.500- 135 2.86 139 2.86 140 2.86 188 2.86 198 2.86 199 2.86 202 2.86 203 2.86
                           204 2.86 246 2.86 250 2.86 252 2.86
 202  0.750  0.125  0.625- 139 2.86 140 2.86 144 2.86 155 2.86 201 2.86 203 2.86 204 2.86 205 2.86
                           208 2.86 217 2.86 219 2.86 221 2.86
 203  0.875  0.000  0.625-   9 2.86  10 2.86  13 2.86  58 2.86 201 2.86 202 2.86 204 2.86 205 2.86
                           208 2.86 250 2.86 252 2.86 256 2.86
 204  0.875  0.125  0.500-   6 2.86   9 2.86  10 2.86  25 2.86 198 2.86 199 2.86 201 2.86 202 2.86
                           203 2.86 215 2.86 217 2.86 219 2.86
 205  0.750  0.000  0.750- 139 2.86 143 2.86 144 2.86 192 2.86 202 2.86 203 2.86 206 2.86 207 2.86
                           208 2.86 250 2.86 254 2.86 256 2.86
 206  0.750  0.125  0.875- 132 2.86 143 2.86 144 2.86 159 2.86 193 2.86 196 2.86 205 2.86 207 2.86
                           208 2.86 209 2.86 221 2.86 223 2.86
 207  0.875  0.000  0.875-   1 2.86  13 2.86  14 2.86  62 2.86 193 2.86 196 2.86 205 2.86 206 2.86
                           208 2.86 244 2.86 254 2.86 256 2.86
 208  0.875  0.125  0.750-  10 2.86  13 2.86  14 2.86  29 2.86 202 2.86 203 2.86 205 2.86 206 2.86
                           207 2.86 219 2.86 221 2.86 223 2.86
 209  0.750  0.250  0.000- 132 2.86 147 2.86 148 2.86 159 2.86 194 2.86 196 2.86 206 2.86 210 2.86
                           211 2.86 212 2.86 222 2.86 223 2.86
 210  0.750  0.375  0.125- 147 2.86 148 2.86 152 2.86 163 2.86 209 2.86 211 2.86 212 2.86 213 2.86
                           216 2.86 225 2.86 227 2.86 229 2.86
 211  0.875  0.250  0.125-   2 2.86  17 2.86  18 2.86  21 2.86 194 2.86 196 2.86 200 2.86 209 2.86
                           210 2.86 212 2.86 213 2.86 216 2.86
 212  0.875  0.375  0.000-  17 2.86  18 2.86  30 2.86  33 2.86 209 2.86 210 2.86 211 2.86 222 2.86
                           223 2.86 225 2.86 227 2.86 239 2.86
 213  0.750  0.250  0.250- 136 2.86 147 2.86 151 2.86 152 2.86 194 2.86 198 2.86 200 2.86 210 2.86
                           211 2.86 214 2.86 215 2.86 216 2.86
 214  0.750  0.375  0.375- 151 2.86 152 2.86 156 2.86 167 2.86 213 2.86 215 2.86 216 2.86 217 2.86
                           220 2.86 229 2.86 231 2.86 233 2.86
 215  0.875  0.250  0.375-   6 2.86  21 2.86  22 2.86  25 2.86 198 2.86 200 2.86 204 2.86 213 2.86
                           214 2.86 216 2.86 217 2.86 220 2.86
 216  0.875  0.375  0.250-  18 2.86  21 2.86  22 2.86  37 2.86 210 2.86 211 2.86 213 2.86 214 2.86
                           215 2.86 227 2.86 229 2.86 231 2.86
 217  0.750  0.250  0.500- 140 2.86 151 2.86 155 2.86 156 2.86 198 2.86 202 2.86 204 2.86 214 2.86
                           215 2.86 218 2.86 219 2.86 220 2.86
 218  0.750  0.375  0.625- 155 2.86 156 2.86 160 2.86 171 2.86 217 2.86 219 2.86 220 2.86 221 2.86
                           224 2.86 233 2.86 235 2.86 237 2.86
 219  0.875  0.250  0.625-  10 2.86  25 2.86  26 2.86  29 2.86 202 2.86 204 2.86 208 2.86 217 2.86
                           218 2.86 220 2.86 221 2.86 224 2.86
 220  0.875  0.375  0.500-  22 2.86  25 2.86  26 2.86  41 2.86 214 2.86 215 2.86 217 2.86 218 2.86
                           219 2.86 231 2.86 233 2.86 235 2.86
 221  0.750  0.250  0.750- 144 2.86 155 2.86 159 2.86 160 2.86 202 2.86 206 2.86 208 2.86 218 2.86
                           219 2.86 222 2.86 223 2.86 224 2.86
 222  0.750  0.375  0.875- 148 2.86 159 2.86 160 2.86 175 2.86 209 2.86 212 2.86 221 2.86 223 2.86
                           224 2.86 225 2.86 237 2.86 239 2.86
 223  0.875  0.250  0.875-  14 2.86  17 2.86  29 2.86  30 2.86 196 2.86 206 2.86 208 2.86 209 2.86
                           212 2.86 221 2.86 222 2.86 224 2.86
 224  0.875  0.375  0.750-  26 2.86  29 2.86  30 2.86  45 2.86 218 2.86 219 2.86 221 2.86 222 2.86
                           223 2.86 235 2.86 237 2.86 239 2.86
 225  0.750  0.500  0.000- 148 2.86 163 2.86 164 2.86 175 2.86 210 2.86 212 2.86 222 2.86 226 2.86
                           227 2.86 228 2.86 238 2.86 239 2.86
 226  0.750  0.625  0.125- 163 2.86 164 2.86 168 2.86 179 2.86 225 2.86 227 2.86 228 2.86 229 2.86
                           232 2.86 241 2.86 243 2.86 245 2.86
 227  0.875  0.500  0.125-  18 2.86  33 2.86  34 2.86  37 2.86 210 2.86 212 2.86 216 2.86 225 2.86
                           226 2.86 228 2.86 229 2.86 232 2.86
 228  0.875  0.625  0.000-  33 2.86  34 2.86  46 2.86  49 2.86 225 2.86 226 2.86 227 2.86 238 2.86
                           239 2.86 241 2.86 243 2.86 255 2.86
 229  0.750  0.500  0.250- 152 2.86 163 2.86 167 2.86 168 2.86 210 2.86 214 2.86 216 2.86 226 2.86
                           227 2.86 230 2.86 231 2.86 232 2.86
 230  0.750  0.625  0.375- 167 2.86 168 2.86 172 2.86 183 2.86 229 2.86 231 2.86 232 2.86 233 2.86
                           236 2.86 245 2.86 247 2.86 249 2.86
 231  0.875  0.500  0.375-  22 2.86  37 2.86  38 2.86  41 2.86 214 2.86 216 2.86 220 2.86 229 2.86
                           230 2.86 232 2.86 233 2.86 236 2.86
 232  0.875  0.625  0.250-  34 2.86  37 2.86  38 2.86  53 2.86 226 2.86 227 2.86 229 2.86 230 2.86
                           231 2.86 243 2.86 245 2.86 247 2.86
 233  0.750  0.500  0.500- 156 2.86 167 2.86 171 2.86 172 2.86 214 2.86 218 2.86 220 2.86 230 2.86
                           231 2.86 234 2.86 235 2.86 236 2.86
 234  0.750  0.625  0.625- 171 2.86 172 2.86 176 2.86 187 2.86 233 2.86 235 2.86 236 2.86 237 2.86
                           240 2.86 249 2.86 251 2.86 253 2.86
 235  0.875  0.500  0.625-  26 2.86  41 2.86  42 2.86  45 2.86 218 2.86 220 2.86 224 2.86 233 2.86
                           234 2.86 236 2.86 237 2.86 240 2.86
 236  0.875  0.625  0.500-  38 2.86  41 2.86  42 2.86  57 2.86 230 2.86 231 2.86 233 2.86 234 2.86
                           235 2.86 247 2.86 249 2.86 251 2.86
 237  0.750  0.500  0.750- 160 2.86 171 2.86 175 2.86 176 2.86 218 2.86 222 2.86 224 2.86 234 2.86
                           235 2.86 238 2.86 239 2.86 240 2.86
 238  0.750  0.625  0.875- 164 2.86 175 2.86 176 2.86 191 2.86 225 2.86 228 2.86 237 2.86 239 2.86
                           240 2.86 241 2.86 253 2.86 255 2.86
 239  0.875  0.500  0.875-  30 2.86  33 2.86  45 2.86  46 2.86 212 2.86 222 2.86 224 2.86 225 2.86
                           228 2.86 237 2.86 238 2.86 240 2.86
 240  0.875  0.625  0.750-  42 2.86  45 2.86  46 2.86  61 2.86 234 2.86 235 2.86 237 2.86 238 2.86
                           239 2.86 251 2.86 253 2.86 255 2.86
 241  0.750  0.750  0.000- 164 2.86 179 2.86 180 2.86 191 2.86 226 2.86 228 2.86 238 2.86 242 2.86
                           243 2.86 244 2.86 254 2.86 255 2.86
 242  0.750  0.875  0.125- 131 2.86 179 2.86 180 2.86 184 2.86 193 2.86 195 2.86 197 2.86 241 2.86
                           243 2.86 244 2.86 245 2.86 248 2.86
 243  0.875  0.750  0.125-  34 2.86  49 2.86  50 2.86  53 2.86 226 2.86 228 2.86 232 2.86 241 2.86
                           242 2.86 244 2.86 245 2.86 248 2.86
 244  0.875  0.875  0.000-   1 2.86  49 2.86  50 2.86  62 2.86 193 2.86 195 2.86 207 2.86 241 2.86
                           242 2.86 243 2.86 254 2.86 255 2.86
 245  0.750  0.750  0.250- 168 2.86 179 2.86 183 2.86 184 2.86 226 2.86 230 2.86 232 2.86 242 2.86
                           243 2.86 246 2.86 247 2.86 248 2.86
 246  0.750  0.875  0.375- 135 2.86 183 2.86 184 2.86 188 2.86 197 2.86 199 2.86 201 2.86 245 2.86
                           247 2.86 248 2.86 249 2.86 252 2.86
 247  0.875  0.750  0.375-  38 2.86  53 2.86  54 2.86  57 2.86 230 2.86 232 2.86 236 2.86 245 2.86
                           246 2.86 248 2.86 249 2.86 252 2.86
 248  0.875  0.875  0.250-   5 2.86  50 2.86  53 2.86  54 2.86 195 2.86 197 2.86 199 2.86 242 2.86
                           243 2.86 245 2.86 246 2.86 247 2.86
 249  0.750  0.750  0.500- 172 2.86 183 2.86 187 2.86 188 2.86 230 2.86 234 2.86 236 2.86 246 2.86
                           247 2.86 250 2.86 251 2.86 252 2.86
 250  0.750  0.875  0.625- 139 2.86 187 2.86 188 2.86 192 2.86 201 2.86 203 2.86 205 2.86 249 2.86
                           251 2.86 252 2.86 253 2.86 256 2.86
 251  0.875  0.750  0.625-  42 2.86  57 2.86  58 2.86  61 2.86 234 2.86 236 2.86 240 2.86 249 2.86
                           250 2.86 252 2.86 253 2.86 256 2.86
 252  0.875  0.875  0.500-   9 2.86  54 2.86  57 2.86  58 2.86 199 2.86 201 2.86 203 2.86 246 2.86
                           247 2.86 249 2.86 250 2.86 251 2.86
 253  0.750  0.750  0.750- 176 2.86 187 2.86 191 2.86 192 2.86 234 2.86 238 2.86 240 2.86 250 2.86
                           251 2.86 254 2.86 255 2.86 256 2.86
 254  0.750  0.875  0.875- 143 2.86 180 2.86 191 2.86 192 2.86 193 2.86 205 2.86 207 2.86 241 2.86
                           244 2.86 253 2.86 255 2.86 256 2.86
 255  0.875  0.750  0.875-  46 2.86  49 2.86  61 2.86  62 2.86 228 2.86 238 2.86 240 2.86 241 2.86
                           244 2.86 253 2.86 254 2.86 256 2.86
 256  0.875  0.875  0.750-  13 2.86  58 2.86  61 2.86  62 2.86 203 2.86 205 2.86 207 2.86 250 2.86
                           251 2.86 253 2.86 254 2.86 255 2.86
 
  LATTYP: Found a simple cubic cell.
 ALAT       =    16.2000548000
  
  Lattice vectors:
  
 A1 = (  16.2000548000,   0.0000000000,   0.0000000000)
 A2 = (   0.0000000000,  16.2000548000,   0.0000000000)
 A3 = (   0.0000000000,   0.0000000000,  16.2000548000)


Analysis of symmetry for initial positions (statically):
=====================================================================
 Subroutine PRICEL returns following result:
 
  LATTYP: Found a face centered cubic cell.
 ALAT       =     4.0500137000
  
  Lattice vectors:
  
 A1 = (   2.0250068500,   2.0250068500,   0.0000000000)
 A2 = (   2.0250068500,   0.0000000000,  -2.0250068500)
 A3 = (   0.0000000000,   2.0250068500,  -2.0250068500)
 
 256 primitive cells build up your supercell.
 

 Routine SETGRP: Setting up the symmetry group for a 
 simple cubic supercell.


 Subroutine GETGRP returns: Found 48 space group operations
 (whereof 48 operations were pure point group operations)
 out of a pool of 48 trial point group operations.


The static configuration has the point symmetry O_h .


Analysis of symmetry for dynamics (positions and initial velocities):
=====================================================================
 Subroutine PRICEL returns:
 Original cell was already a primitive cell.
 

 Routine SETGRP: Setting up the symmetry group for a 
 simple cubic supercell.


 Subroutine GETGRP returns: Found  1 space group operations
 (whereof  1 operations were pure point group operations)
 out of a pool of 48 trial point group operations.


The dynamic configuration has the point symmetry C_1 .


 Subroutine INISYM returns: Found  1 space group operations
 (whereof  1 operations are pure point group operations),
 and found     1 'primitive' translations

 
 
 KPOINTS: Automatic mesh                          

Automatic generation of k-mesh.
Space group operators:
 irot       det(A)        alpha          n_x          n_y          n_z        tau_x        tau_y        tau_z
    1     1.000000     0.000000     1.000000     0.000000     0.000000     0.000000     0.000000     0.000000
 
 Subroutine IBZKPT returns following result:
 ===========================================
 
 Found      1 irreducible k-points:
 
 Following reciprocal coordinates:
            Coordinates               Weight
  0.000000  0.000000  0.000000      1.000000
 
 Following cartesian coordinates:
            Coordinates               Weight
  0.000000  0.000000  0.000000      1.000000
 


--------------------------------------------------------------------------------------------------------




 Dimension of arrays:
   k-points           NKPTS =      1   k-points in BZ     NKDIM =      1   number of bands    NBANDS=    516
   number of dos      NEDOS =    301   number of ions     NIONS =    256
   non local maximal  LDIM  =      4   non local SUM 2l+1 LMDIM =      8
   total plane-waves  NPLWV = 262144
   max r-space proj   IRMAX =   1073   max aug-charges    IRDMAX=   2599
   dimension x,y,z NGX =    64 NGY =   64 NGZ =   64
   dimension x,y,z NGXF=   128 NGYF=  128 NGZF=  128
   support grid    NGXF=   128 NGYF=  128 NGZF=  128
   ions per type =             256
   NGX,Y,Z   is equivalent  to a cutoff of   6.57,  6.57,  6.57 a.u.
   NGXF,Y,Z  is equivalent  to a cutoff of  13.14, 13.14, 13.14 a.u.

 SYSTEM =  Al256                                   
 POSCAR =  XYZ.scell: Al256                        

 Startparameter for this run:
   NWRITE =      0    write-flag & timer
   PREC   = normal    normal or accurate (medium, high low for compatibility)
   ISTART =      0    job   : 0-new  1-cont  2-samecut
   ICHARG =      2    charge: 1-file 2-atom 10-const
   ISPIN  =      1    spin polarized calculation?
   LNONCOLLINEAR =      F non collinear calculations
   LSORBIT =      F    spin-orbit coupling
   INIWAV =      1    electr: 0-lowe 1-rand  2-diag
   LASPH  =      F    aspherical Exc in radial PAW
   METAGGA=      F    non-selfconsistent MetaGGA calc.

 Electronic Relaxation 1
   ENCUT  =  240.3 eV  17.66 Ry    4.20 a.u.  20.48 20.48 20.48*2*pi/ulx,y,z
   ENINI  =  240.3     initial cutoff
   ENAUG  =  291.1 eV  augmentation charge cutoff
   NELM   =     50;   NELMIN=  2; NELMDL=  0     # of ELM steps 
   EDIFF  = 0.1E-03   stopping-criterion for ELM
   LREAL  =      T    real-space projection
   NLSPLINE    = F    spline interpolate recip. space projectors
   LCOMPAT=      F    compatible to vasp.4.4
   GGA_COMPAT  = T    GGA compatible to vasp.4.4-vasp.4.6
   LMAXPAW     = -100 max onsite density
   LMAXMIX     =    2 max onsite mixed and CHGCAR
   VOSKOWN=      0    Vosko Wilk Nusair interpolation
   ROPT   =   -0.00050
 Ionic relaxation
   EDIFFG = 0.1E-02   stopping-criterion for IOM
   NSW    =    100    number of steps for IOM
   NBLOCK =      1;   KBLOCK =    100    inner block; outer block 
   IBRION =      0    ionic relax: 0-MD 1-quasi-New 2-CG
   NFREE  =      0    steps in history (QN), initial steepest desc. (CG)
   ISIF   =      0    stress and relaxation
   IWAVPR =     12    prediction:  0-non 1-charg 2-wave 3-comb
   ISYM   =      2    0-nonsym 1-usesym 2-fastsym
   LCORR  =      T    Harris-Foulkes like correction to forces

   POTIM  = 2.0000    time-step for ionic-motion
   TEIN   =  300.0    initial temperature
   TEBEG  =  300.0;   TEEND  = 300.0 temperature during run
   SMASS  =  -1.00    Nose mass-parameter (am)
   estimated Nose-frequenzy (Omega)   =  0.10E-29 period in steps =****** mass=  -0.200E-26a.u.
   SCALEE = 1.0000    scale energy and forces
   NPACO  =    256;   APACO  = 16.0  distance and # of slots for P.C.
   PSTRESS=    0.0 pullay stress

  Mass of Ions in am
   POMASS =  26.98
  Ionic Valenz
   ZVAL   =   3.00
  Atomic Wigner-Seitz radii
   RWIGS  =  -1.00
  virtual crystal weights 
   VCA    =   1.00
   NELECT =     768.0000    total number of electrons
   NUPDOWN=      -1.0000    fix difference up-down

 DOS related values:
   EMIN   =  10.00;   EMAX   =-10.00  energy-range for DOS
   EFERMI =   0.00
   ISMEAR =     1;   SIGMA  =   0.20  broadening in eV -4-tet -1-fermi 0-gaus

 Electronic relaxation 2 (details)
   IALGO  =     38    algorithm
   LDIAG  =      T    sub-space diagonalisation (order eigenvalues)
   LSUBROT=      F    optimize rotation matrix (better conditioning)
   TURBO    =      0    0=normal 1=particle mesh
   IRESTART =      0    0=no restart 2=restart with 2 vectors
   NREBOOT  =      0    no. of reboots
   NMIN     =      0    reboot dimension
   EREF     =   0.00    reference energy to select bands
   IMIX   =      4    mixing-type and parameters
     AMIX     =   0.40;   BMIX     =  1.00
     AMIX_MAG =   1.60;   BMIX_MAG =  1.00
     AMIN     =   0.10
     WC   =   100.;   INIMIX=   1;  MIXPRE=   1;  MAXMIX=  40

 Intra band minimization:
   WEIMIN = 0.0010     energy-eigenvalue tresh-hold
   EBREAK =  0.48E-07  absolut break condition
   DEPER  =   0.30     relativ break condition  

   TIME   =   0.40     timestep for ELM

  volume/ion in A,a.u.               =      16.61       112.07
  Fermi-wavevector in a.u.,A,eV,Ry     =   0.925434  1.748817 11.652410  0.856428
  Thomas-Fermi vector in A             =   2.051288
 
 Write flags
   LWAVE        =      T    write WAVECAR
   LDOWNSAMPLE  =      F    k-point downsampling of WAVECAR
   LCHARG       =      F    write CHGCAR
   LVTOT        =      F    write LOCPOT, total local potential
   LVHAR        =      F    write LOCPOT, Hartree potential only
   LELF         =      F    write electronic localiz. function (ELF)
   LORBIT       =      0    0 simple, 1 ext, 2 COOP (PROOUT), +10 PAW based schemes


 Dipole corrections
   LMONO  =      F    monopole corrections only (constant potential shift)
   LDIPOL =      F    correct potential (dipole corrections)
   IDIPOL =      0    1-x, 2-y, 3-z, 4-all directions 
   EPSILON=  1.0000000 bulk dielectric constant

 Exchange correlation treatment:
   GGA     =    --    GGA type
   LEXCH   =     8    internal setting for exchange type
   VOSKOWN=      0    Vosko Wilk Nusair interpolation
   LHFCALC =     F    Hartree Fock is set to
   LHFONE  =     F    Hartree Fock one center treatment
   AEXX    =    0.0000 exact exchange contribution

 Linear response parameters
   LEPSILON=     F    determine dielectric tensor
   LRPA    =     F    only Hartree local field effects (RPA)
   LNABLA  =     F    use nabla operator in PAW spheres
   LVEL    =     F    velocity operator in full k-point grid
   LINTERFAST=   F  fast interpolation
   KINTER  =     0    interpolate to denser k-point grid
   CSHIFT  =0.1000    complex shift for real part using Kramers Kronig
   OMEGAMAX=  -1.0    maximum frequency
   DEG_THRESHOLD= 0.2000000E-02 threshold for treating states as degnerate
   RTIME   =   -0.100 relaxation time in fs
  (WPLASMAI=    0.000 imaginary part of plasma frequency in eV, 0.658/RTIME)
   DFIELD  = 0.0000000 0.0000000 0.0000000 field for delta impulse in time
 
 Orbital magnetization related:
   ORBITALMAG=     F  switch on orbital magnetization
   LCHIMAG   =     F  perturbation theory with respect to B field
   DQ        =  0.001000  dq finite difference perturbation B field
   LLRAUG    =     F  two centre corrections for induced B field



--------------------------------------------------------------------------------------------------------


 molecular dynamics for ions
   scaling velocities every NBLOCK steps
 charge density and potential will be updated during run
 non-spin polarized calculation
 Variant of blocked Davidson
 Davidson routine will perform the subspace rotation
 perform sub-space diagonalisation
    after iterative eigenvector-optimisation
 modified Broyden-mixing scheme, WC =      100.0
 initial mixing is a Kerker type mixing with AMIX =  0.4000 and BMIX =      1.0000
 Hartree-type preconditioning will be used
 using additional bands          132
 real space projection scheme for non local part
 use partial core corrections
 calculate Harris-corrections to forces 
   (improved forces if not selfconsistent)
 use gradient corrections 
 use of overlap-Matrix (Vanderbilt PP)
 Methfessel and Paxton  Order N= 1 SIGMA  =   0.20


--------------------------------------------------------------------------------------------------------


  energy-cutoff  :      240.30
  volume of cell :     4251.57
      direct lattice vectors                 reciprocal lattice vectors
    16.200054800  0.000000000  0.000000000     0.061728186  0.000000000  0.000000000
     0.000000000 16.200054800  0.000000000     0.000000000  0.061728186  0.000000000
     0.000000000  0.000000000 16.200054800     0.000000000  0.000000000  0.061728186

  length of vectors
    16.200054800 16.200054800 16.200054800     0.061728186  0.061728186  0.061728186


 
 k-points in units of 2pi/SCALE and weight: Automatic mesh                          
   0.00000000  0.00000000  0.00000000       1.000
 
 k-points in reciprocal lattice and weights: Automatic mesh                          
   0.00000000  0.00000000  0.00000000       1.000
 
 position of ions in fractional coordinates (direct lattice) 
   0.00000000  0.00000000  0.00000000
   0.00000000  0.12500000  0.12500000
   0.12500000  0.00000000  0.12500000
   0.12500000  0.12500000  0.00000000
   0.00000000  0.00000000  0.25000000
   0.00000000  0.12500000  0.37500000
   0.12500000  0.00000000  0.37500000
   0.12500000  0.12500000  0.25000000
   0.00000000  0.00000000  0.50000000
   0.00000000  0.12500000  0.62500000
   0.12500000  0.00000000  0.62500000
   0.12500000  0.12500000  0.50000000
   0.00000000  0.00000000  0.75000000
   0.00000000  0.12500000  0.87500000
   0.12500000  0.00000000  0.87500000
   0.12500000  0.12500000  0.75000000
   0.00000000  0.25000000  0.00000000
   0.00000000  0.37500000  0.12500000
   0.12500000  0.25000000  0.12500000
   0.12500000  0.37500000  0.00000000
   0.00000000  0.25000000  0.25000000
   0.00000000  0.37500000  0.37500000
   0.12500000  0.25000000  0.37500000
   0.12500000  0.37500000  0.25000000
   0.00000000  0.25000000  0.50000000
   0.00000000  0.37500000  0.62500000
   0.12500000  0.25000000  0.62500000
   0.12500000  0.37500000  0.50000000
   0.00000000  0.25000000  0.75000000
   0.00000000  0.37500000  0.87500000
   0.12500000  0.25000000  0.87500000
   0.12500000  0.37500000  0.75000000
   0.00000000  0.50000000  0.00000000
   0.00000000  0.62500000  0.12500000
   0.12500000  0.50000000  0.12500000
   0.12500000  0.62500000  0.00000000
   0.00000000  0.50000000  0.25000000
   0.00000000  0.62500000  0.37500000
   0.12500000  0.50000000  0.37500000
   0.12500000  0.62500000  0.25000000
   0.00000000  0.50000000  0.50000000
   0.00000000  0.62500000  0.62500000
   0.12500000  0.50000000  0.62500000
   0.12500000  0.62500000  0.50000000
   0.00000000  0.50000000  0.75000000
   0.00000000  0.62500000  0.87500000
   0.12500000  0.50000000  0.87500000
   0.12500000  0.62500000  0.75000000
   0.00000000  0.75000000  0.00000000
   0.00000000  0.87500000  0.12500000
   0.12500000  0.75000000  0.12500000
   0.12500000  0.87500000  0.00000000
   0.00000000  0.75000000  0.25000000
   0.00000000  0.87500000  0.37500000
   0.12500000  0.75000000  0.37500000
   0.12500000  0.87500000  0.25000000
   0.00000000  0.75000000  0.50000000
   0.00000000  0.87500000  0.62500000
   0.12500000  0.75000000  0.62500000
   0.12500000  0.87500000  0.50000000
   0.00000000  0.75000000  0.75000000
   0.00000000  0.87500000  0.87500000
   0.12500000  0.75000000  0.87500000
   0.12500000  0.87500000  0.75000000
   0.25000000  0.00000000  0.00000000
   0.25000000  0.12500000  0.12500000
   0.37500000  0.00000000  0.12500000
   0.37500000  0.12500000  0.00000000
   0.25000000  0.00000000  0.25000000
   0.25000000  0.12500000  0.37500000
   0.37500000  0.00000000  0.37500000
   0.37500000  0.12500000  0.25000000
   0.25000000  0.00000000  0.50000000
   0.25000000  0.12500000  0.62500000
   0.37500000  0.00000000  0.62500000
   0.37500000  0.12500000  0.50000000
   0.25000000  0.00000000  0.75000000
   0.25000000  0.12500000  0.87500000
   0.37500000  0.00000000  0.87500000
   0.37500000  0.12500000  0.75000000
   0.25000000  0.25000000  0.00000000
   0.25000000  0.37500000  0.12500000
   0.37500000  0.25000000  0.12500000
   0.37500000  0.37500000  0.00000000
   0.25000000  0.25000000  0.25000000
   0.25000000  0.37500000  0.37500000
   0.37500000  0.25000000  0.37500000
   0.37500000  0.37500000  0.25000000
   0.25000000  0.25000000  0.50000000
   0.25000000  0.37500000  0.62500000
   0.37500000  0.25000000  0.62500000
   0.37500000  0.37500000  0.50000000
   0.25000000  0.25000000  0.75000000
   0.25000000  0.37500000  0.87500000
   0.37500000  0.25000000  0.87500000
   0.37500000  0.37500000  0.75000000
   0.25000000  0.50000000  0.00000000
   0.25000000  0.62500000  0.12500000
   0.37500000  0.50000000  0.12500000
   0.37500000  0.62500000  0.00000000
   0.25000000  0.50000000  0.25000000
   0.25000000  0.62500000  0.37500000
   0.37500000  0.50000000  0.37500000
   0.37500000  0.62500000  0.25000000
   0.25000000  0.50000000  0.50000000
   0.25000000  0.62500000  0.62500000
   0.37500000  0.50000000  0.62500000
   0.37500000  0.62500000  0.50000000
   0.25000000  0.50000000  0.75000000
   0.25000000  0.62500000  0.87500000
   0.37500000  0.50000000  0.87500000
   0.37500000  0.62500000  0.75000000
   0.25000000  0.75000000  0.00000000
   0.25000000  0.87500000  0.12500000
   0.37500000  0.75000000  0.12500000
   0.37500000  0.87500000  0.00000000
   0.25000000  0.75000000  0.25000000
   0.25000000  0.87500000  0.37500000
   0.37500000  0.75000000  0.37500000
   0.37500000  0.87500000  0.25000000
   0.25000000  0.75000000  0.50000000
   0.25000000  0.87500000  0.62500000
   0.37500000  0.75000000  0.62500000
   0.37500000  0.87500000  0.50000000
   0.25000000  0.75000000  0.75000000
   0.25000000  0.87500000  0.87500000
   0.37500000  0.75000000  0.87500000
   0.37500000  0.87500000  0.75000000
   0.50000000  0.00000000  0.00000000
   0.50000000  0.12500000  0.12500000
   0.62500000  0.00000000  0.12500000
   0.62500000  0.12500000  0.00000000
   0.50000000  0.00000000  0.25000000
   0.50000000  0.12500000  0.37500000
   0.62500000  0.00000000  0.37500000
   0.62500000  0.12500000  0.25000000
   0.50000000  0.00000000  0.50000000
   0.50000000  0.12500000  0.62500000
   0.62500000  0.00000000  0.62500000
   0.62500000  0.12500000  0.50000000
   0.50000000  0.00000000  0.75000000
   0.50000000  0.12500000  0.87500000
   0.62500000  0.00000000  0.87500000
   0.62500000  0.12500000  0.75000000
   0.50000000  0.25000000  0.00000000
   0.50000000  0.37500000  0.12500000
   0.62500000  0.25000000  0.12500000
   0.62500000  0.37500000  0.00000000
   0.50000000  0.25000000  0.25000000
   0.50000000  0.37500000  0.37500000
   0.62500000  0.25000000  0.37500000
   0.62500000  0.37500000  0.25000000
   0.50000000  0.25000000  0.50000000
   0.50000000  0.37500000  0.62500000
   0.62500000  0.25000000  0.62500000
   0.62500000  0.37500000  0.50000000
   0.50000000  0.25000000  0.75000000
   0.50000000  0.37500000  0.87500000
   0.62500000  0.25000000  0.87500000
   0.62500000  0.37500000  0.75000000
   0.50000000  0.50000000  0.00000000
   0.50000000  0.62500000  0.12500000
   0.62500000  0.50000000  0.12500000
   0.62500000  0.62500000  0.00000000
   0.50000000  0.50000000  0.25000000
   0.50000000  0.62500000  0.37500000
   0.62500000  0.50000000  0.37500000
   0.62500000  0.62500000  0.25000000
   0.50000000  0.50000000  0.50000000
   0.50000000  0.62500000  0.62500000
   0.62500000  0.50000000  0.62500000
   0.62500000  0.62500000  0.50000000
   0.50000000  0.50000000  0.75000000
   0.50000000  0.62500000  0.87500000
   0.62500000  0.50000000  0.87500000
   0.62500000  0.62500000  0.75000000
   0.50000000  0.75000000  0.00000000
   0.50000000  0.87500000  0.12500000
   0.62500000  0.75000000  0.12500000
   0.62500000  0.87500000  0.00000000
   0.50000000  0.75000000  0.25000000
   0.50000000  0.87500000  0.37500000
   0.62500000  0.75000000  0.37500000
   0.62500000  0.87500000  0.25000000
   0.50000000  0.75000000  0.50000000
   0.50000000  0.87500000  0.62500000
   0.62500000  0.75000000  0.62500000
   0.62500000  0.87500000  0.50000000
   0.50000000  0.75000000  0.75000000
   0.50000000  0.87500000  0.87500000
   0.62500000  0.75000000  0.87500000
   0.62500000  0.87500000  0.75000000
   0.75000000  0.00000000  0.00000000
   0.75000000  0.12500000  0.12500000
   0.87500000  0.00000000  0.12500000
   0.87500000  0.12500000  0.00000000
   0.75000000  0.00000000  0.25000000
   0.75000000  0.12500000  0.37500000
   0.87500000  0.00000000  0.37500000
   0.87500000  0.12500000  0.25000000
   0.75000000  0.00000000  0.50000000
   0.75000000  0.12500000  0.62500000
   0.87500000  0.00000000  0.62500000
   0.87500000  0.12500000  0.50000000
   0.75000000  0.00000000  0.75000000
   0.75000000  0.12500000  0.87500000
   0.87500000  0.00000000  0.87500000
   0.87500000  0.12500000  0.75000000
   0.75000000  0.25000000  0.00000000
   0.75000000  0.37500000  0.12500000
   0.87500000  0.25000000  0.12500000
   0.87500000  0.37500000  0.00000000
   0.75000000  0.25000000  0.25000000
   0.75000000  0.37500000  0.37500000
   0.87500000  0.25000000  0.37500000
   0.87500000  0.37500000  0.25000000
   0.75000000  0.25000000  0.50000000
   0.75000000  0.37500000  0.62500000
   0.87500000  0.25000000  0.62500000
   0.87500000  0.37500000  0.50000000
   0.75000000  0.25000000  0.75000000
   0.75000000  0.37500000  0.87500000
   0.87500000  0.25000000  0.87500000
   0.87500000  0.37500000  0.75000000
   0.75000000  0.50000000  0.00000000
   0.75000000  0.62500000  0.12500000
   0.87500000  0.50000000  0.12500000
   0.87500000  0.62500000  0.00000000
   0.75000000  0.50000000  0.25000000
   0.75000000  0.62500000  0.37500000
   0.87500000  0.50000000  0.37500000
   0.87500000  0.62500000  0.25000000
   0.75000000  0.50000000  0.50000000
   0.75000000  0.62500000  0.62500000
   0.87500000  0.50000000  0.62500000
   0.87500000  0.62500000  0.50000000
   0.75000000  0.50000000  0.75000000
   0.75000000  0.62500000  0.87500000
   0.87500000  0.50000000  0.87500000
   0.87500000  0.62500000  0.75000000
   0.75000000  0.75000000  0.00000000
   0.75000000  0.87500000  0.12500000
   0.87500000  0.75000000  0.12500000
   0.87500000  0.87500000  0.00000000
   0.75000000  0.75000000  0.25000000
   0.75000000  0.87500000  0.37500000
   0.87500000  0.75000000  0.37500000
   0.87500000  0.87500000  0.25000000
   0.75000000  0.75000000  0.50000000
   0.75000000  0.87500000  0.62500000
   0.87500000  0.75000000  0.62500000
   0.87500000  0.87500000  0.50000000
   0.75000000  0.75000000  0.75000000
   0.75000000  0.87500000  0.87500000
   0.87500000  0.75000000  0.87500000
   0.87500000  0.87500000  0.75000000
 
 position of ions in cartesian coordinates  (Angst):
   0.00000000  0.00000000  0.00000000
   0.00000000  2.02500685  2.02500685
   2.02500685  0.00000000  2.02500685
   2.02500685  2.02500685  0.00000000
   0.00000000  0.00000000  4.05001370
   0.00000000  2.02500685  6.07502055
   2.02500685  0.00000000  6.07502055
   2.02500685  2.02500685  4.05001370
   0.00000000  0.00000000  8.10002740
   0.00000000  2.02500685 10.12503425
   2.02500685  0.00000000 10.12503425
   2.02500685  2.02500685  8.10002740
   0.00000000  0.00000000 12.15004110
   0.00000000  2.02500685 14.17504795
   2.02500685  0.00000000 14.17504795
   2.02500685  2.02500685 12.15004110
   0.00000000  4.05001370  0.00000000
   0.00000000  6.07502055  2.02500685
   2.02500685  4.05001370  2.02500685
   2.02500685  6.07502055  0.00000000
   0.00000000  4.05001370  4.05001370
   0.00000000  6.07502055  6.07502055
   2.02500685  4.05001370  6.07502055
   2.02500685  6.07502055  4.05001370
   0.00000000  4.05001370  8.10002740
   0.00000000  6.07502055 10.12503425
   2.02500685  4.05001370 10.12503425
   2.02500685  6.07502055  8.10002740
   0.00000000  4.05001370 12.15004110
   0.00000000  6.07502055 14.17504795
   2.02500685  4.05001370 14.17504795
   2.02500685  6.07502055 12.15004110
   0.00000000  8.10002740  0.00000000
   0.00000000 10.12503425  2.02500685
   2.02500685  8.10002740  2.02500685
   2.02500685 10.12503425  0.00000000
   0.00000000  8.10002740  4.05001370
   0.00000000 10.12503425  6.07502055
   2.02500685  8.10002740  6.07502055
   2.02500685 10.12503425  4.05001370
   0.00000000  8.10002740  8.10002740
   0.00000000 10.12503425 10.12503425
   2.02500685  8.10002740 10.12503425
   2.02500685 10.12503425  8.10002740
   0.00000000  8.10002740 12.15004110
   0.00000000 10.12503425 14.17504795
   2.02500685  8.10002740 14.17504795
   2.02500685 10.12503425 12.15004110
   0.00000000 12.15004110  0.00000000
   0.00000000 14.17504795  2.02500685
   2.02500685 12.15004110  2.02500685
   2.02500685 14.17504795  0.00000000
   0.00000000 12.15004110  4.05001370
   0.00000000 14.17504795  6.07502055
   2.02500685 12.15004110  6.07502055
   2.02500685 14.17504795  4.05001370
   0.00000000 12.15004110  8.10002740
   0.00000000 14.17504795 10.12503425
   2.02500685 12.15004110 10.12503425
   2.02500685 14.17504795  8.10002740
   0.00000000 12.15004110 12.15004110
   0.00000000 14.17504795 14.17504795
   2.02500685 12.15004110 14.17504795
   2.02500685 14.17504795 12.15004110
   4.05001370  0.00000000  0.00000000
   4.05001370  2.02500685  2.02500685
   6.07502055  0.00000000  2.02500685
   6.07502055  2.02500685  0.00000000
   4.05001370  0.00000000  4.05001370
   4.05001370  2.02500685  6.07502055
   6.07502055  0.00000000  6.07502055
   6.07502055  2.02500685  4.05001370
   4.05001370  0.00000000  8.10002740
   4.05001370  2.02500685 10.12503425
   6.07502055  0.00000000 10.12503425
   6.07502055  2.02500685  8.10002740
   4.05001370  0.00000000 12.15004110
   4.05001370  2.02500685 14.17504795
   6.07502055  0.00000000 14.17504795
   6.07502055  2.02500685 12.15004110
   4.05001370  4.05001370  0.00000000
   4.05001370  6.07502055  2.02500685
   6.07502055  4.05001370  2.02500685
   6.07502055  6.07502055  0.00000000
   4.05001370  4.05001370  4.05001370
   4.05001370  6.07502055  6.07502055
   6.07502055  4.05001370  6.07502055
   6.07502055  6.07502055  4.05001370
   4.05001370  4.05001370  8.10002740
   4.05001370  6.07502055 10.12503425
   6.07502055  4.05001370 10.12503425
   6.07502055  6.07502055  8.10002740
   4.05001370  4.05001370 12.15004110
   4.05001370  6.07502055 14.17504795
   6.07502055  4.05001370 14.17504795
   6.07502055  6.07502055 12.15004110
   4.05001370  8.10002740  0.00000000
   4.05001370 10.12503425  2.02500685
   6.07502055  8.10002740  2.02500685
   6.07502055 10.12503425  0.00000000
   4.05001370  8.10002740  4.05001370
   4.05001370 10.12503425  6.07502055
   6.07502055  8.10002740  6.07502055
   6.07502055 10.12503425  4.05001370
   4.05001370  8.10002740  8.10002740
   4.05001370 10.12503425 10.12503425
   6.07502055  8.10002740 10.12503425
   6.07502055 10.12503425  8.10002740
   4.05001370  8.10002740 12.15004110
   4.05001370 10.12503425 14.17504795
   6.07502055  8.10002740 14.17504795
   6.07502055 10.12503425 12.15004110
   4.05001370 12.15004110  0.00000000
   4.05001370 14.17504795  2.02500685
   6.07502055 12.15004110  2.02500685
   6.07502055 14.17504795  0.00000000
   4.05001370 12.15004110  4.05001370
   4.05001370 14.17504795  6.07502055
   6.07502055 12.15004110  6.07502055
   6.07502055 14.17504795  4.05001370
   4.05001370 12.15004110  8.10002740
   4.05001370 14.17504795 10.12503425
   6.07502055 12.15004110 10.12503425
   6.07502055 14.17504795  8.10002740
   4.05001370 12.15004110 12.15004110
   4.05001370 14.17504795 14.17504795
   6.07502055 12.15004110 14.17504795
   6.07502055 14.17504795 12.15004110
   8.10002740  0.00000000  0.00000000
   8.10002740  2.02500685  2.02500685
  10.12503425  0.00000000  2.02500685
  10.12503425  2.02500685  0.00000000
   8.10002740  0.00000000  4.05001370
   8.10002740  2.02500685  6.07502055
  10.12503425  0.00000000  6.07502055
  10.12503425  2.02500685  4.05001370
   8.10002740  0.00000000  8.10002740
   8.10002740  2.02500685 10.12503425
  10.12503425  0.00000000 10.12503425
  10.12503425  2.02500685  8.10002740
   8.10002740  0.00000000 12.15004110
   8.10002740  2.02500685 14.17504795
  10.12503425  0.00000000 14.17504795
  10.12503425  2.02500685 12.15004110
   8.10002740  4.05001370  0.00000000
   8.10002740  6.07502055  2.02500685
  10.12503425  4.05001370  2.02500685
  10.12503425  6.07502055  0.00000000
   8.10002740  4.05001370  4.05001370
   8.10002740  6.07502055  6.07502055
  10.12503425  4.05001370  6.07502055
  10.12503425  6.07502055  4.05001370
   8.10002740  4.05001370  8.10002740
   8.10002740  6.07502055 10.12503425
  10.12503425  4.05001370 10.12503425
  10.12503425  6.07502055  8.10002740
   8.10002740  4.05001370 12.15004110
   8.10002740  6.07502055 14.17504795
  10.12503425  4.05001370 14.17504795
  10.12503425  6.07502055 12.15004110
   8.10002740  8.10002740  0.00000000
   8.10002740 10.12503425  2.02500685
  10.12503425  8.10002740  2.02500685
  10.12503425 10.12503425  0.00000000
   8.10002740  8.10002740  4.05001370
   8.10002740 10.12503425  6.07502055
  10.12503425  8.10002740  6.07502055
  10.12503425 10.12503425  4.05001370
   8.10002740  8.10002740  8.10002740
   8.10002740 10.12503425 10.12503425
  10.12503425  8.10002740 10.12503425
  10.12503425 10.12503425  8.10002740
   8.10002740  8.10002740 12.15004110
   8.10002740 10.12503425 14.17504795
  10.12503425  8.10002740 14.17504795
  10.12503425 10.12503425 12.15004110
   8.10002740 12.15004110  0.00000000
   8.10002740 14.17504795  2.02500685
  10.12503425 12.15004110  2.02500685
  10.12503425 14.17504795  0.00000000
   8.10002740 12.15004110  4.05001370
   8.10002740 14.17504795  6.07502055
  10.12503425 12.15004110  6.07502055
  10.12503425 14.17504795  4.05001370
   8.10002740 12.15004110  8.10002740
   8.10002740 14.17504795 10.12503425
  10.12503425 12.15004110 10.12503425
  10.12503425 14.17504795  8.10002740
   8.10002740 12.15004110 12.15004110
   8.10002740 14.17504795 14.17504795
  10.12503425 12.15004110 14.17504795
  10.12503425 14.17504795 12.15004110
  12.15004110  0.00000000  0.00000000
  12.15004110  2.02500685  2.02500685
  14.17504795  0.00000000  2.02500685
  14.17504795  2.02500685  0.00000000
  12.15004110  0.00000000  4.05001370
  12.15004110  2.02500685  6.07502055
  14.17504795  0.00000000  6.07502055
  14.17504795  2.02500685  4.05001370
  12.15004110  0.00000000  8.10002740
  12.15004110  2.02500685 10.12503425
  14.17504795  0.00000000 10.12503425
  14.17504795  2.02500685  8.10002740
  12.15004110  0.00000000 12.15004110
  12.15004110  2.02500685 14.17504795
  14.17504795  0.00000000 14.17504795
  14.17504795  2.02500685 12.15004110
  12.15004110  4.05001370  0.00000000
  12.15004110  6.07502055  2.02500685
  14.17504795  4.05001370  2.02500685
  14.17504795  6.07502055  0.00000000
  12.15004110  4.05001370  4.05001370
  12.15004110  6.07502055  6.07502055
  14.17504795  4.05001370  6.07502055
  14.17504795  6.07502055  4.05001370
  12.15004110  4.05001370  8.10002740
  12.15004110  6.07502055 10.12503425
  14.17504795  4.05001370 10.12503425
  14.17504795  6.07502055  8.10002740
  12.15004110  4.05001370 12.15004110
  12.15004110  6.07502055 14.17504795
  14.17504795  4.05001370 14.17504795
  14.17504795  6.07502055 12.15004110
  12.15004110  8.10002740  0.00000000
  12.15004110 10.12503425  2.02500685
  14.17504795  8.10002740  2.02500685
  14.17504795 10.12503425  0.00000000
  12.15004110  8.10002740  4.05001370
  12.15004110 10.12503425  6.07502055
  14.17504795  8.10002740  6.07502055
  14.17504795 10.12503425  4.05001370
  12.15004110  8.10002740  8.10002740
  12.15004110 10.12503425 10.12503425
  14.17504795  8.10002740 10.12503425
  14.17504795 10.12503425  8.10002740
  12.15004110  8.10002740 12.15004110
  12.15004110 10.12503425 14.17504795
  14.17504795  8.10002740 14.17504795
  14.17504795 10.12503425 12.15004110
  12.15004110 12.15004110  0.00000000
  12.15004110 14.17504795  2.02500685
  14.17504795 12.15004110  2.02500685
  14.17504795 14.17504795  0.00000000
  12.15004110 12.15004110  4.05001370
  12.15004110 14.17504795  6.07502055
  14.17504795 12.15004110  6.07502055
  14.17504795 14.17504795  4.05001370
  12.15004110 12.15004110  8.10002740
  12.15004110 14.17504795 10.12503425
  14.17504795 12.15004110 10.12503425
  14.17504795 14.17504795  8.10002740
  12.15004110 12.15004110 12.15004110
  12.15004110 14.17504795 14.17504795
  14.17504795 12.15004110 14.17504795
  14.17504795 14.17504795 12.15004110
 


--------------------------------------------------------------------------------------------------------


 use parallel FFT for orbitals z direction half grid
 k-point  1 :   0.0000 0.0000 0.0000  plane waves:   18021

 maximum and minimum number of plane-waves per node :      9013     9008

 maximum number of plane-waves:     18021
 maximum index in each direction: 
   IXMAX=   20   IYMAX=   20   IZMAX=   20
   IXMIN=  -20   IYMIN=  -20   IZMIN=    0


 real space projection operators:
  total allocation   :      16336.00 KBytes
  max/ min on nodes  :       8416.00       7920.00


 parallel 3D FFT for wavefunctions:
    minimum data exchange during FFTs selected (reduces bandwidth)
 parallel 3D FFT for charge:
    minimum data exchange during FFTs selected (reduces bandwidth)


 total amount of memory used by VASP MPI-rank0    75998. kBytes
=======================================================================

   base      :      30000. kBytes
   nonlr-proj:       9732. kBytes
   fftplans  :       8940. kBytes
   grid      :      14016. kBytes
   one-center:        196. kBytes
   wavefun   :      13114. kBytes
 
     INWAV:  cpu time    0.0000: real time    0.0002
 Broyden mixing: mesh for mixing (old mesh)
   NGX = 41   NGY = 41   NGZ = 41
  (NGX  =128   NGY  =128   NGZ  =128)
  gives a total of  68921 points

 initial charge density was supplied:
 charge density of overlapping atoms calculated
 number of electron     768.0000000 magnetization 
 keeping initial charge density in first step


--------------------------------------------------------------------------------------------------------


 Maximum index for non-local projection operator          495
 Maximum index for augmentation-charges          222 (set IRDMAX)


--------------------------------------------------------------------------------------------------------


 First call to EWALD:  gamma=   0.109
 Maximum number of real-space cells 3x 3x 3
 Maximum number of reciprocal cells 3x 3x 3

    FEWALD:  cpu time    0.0459: real time    0.0459


--------------------------------------- Iteration      1(   1)  ---------------------------------------


    POTLOK:  cpu time    0.2030: real time    0.2060
    SETDIJ:  cpu time    0.0351: real time    0.0351
     EDDAV:  cpu time    8.4513: real time    8.4821
       DOS:  cpu time    0.0008: real time    0.0008
    --------------------------------------------
      LOOP:  cpu time    8.6903: real time    8.7241

 eigenvalue-minimisations  :  1032
 total energy-change (2. order) : 0.1794305E+04  (-0.1877610E+05)
 number of electron     768.0000000 magnetization 
 augmentation part      768.0000000 magnetization 

 Free energy of the ion-electron system (eV)
  ---------------------------------------------------
  alpha Z        PSCENC =       -51.77449891
  Ewald energy   TEWEN  =    -18779.26261193
  -Hartree energ DENC   =       -26.59119506
  -exchange      EXHF   =         0.00000000
  -V(xc)+E(xc)   XCENC  =     -6720.36127826
  PAW double counting   =     16947.24022423    -8766.87891371
  entropy T*S    EENTRO =         0.04286940
  eigenvalues    EBANDS =      5486.72481610
  atomic energy  EATOM  =     13705.16559714
  Solvation  Ediel_sol  =         0.00000000
  ---------------------------------------------------
  free energy    TOTEN  =      1794.30500902 eV

  energy without entropy =     1794.26213962  energy(sigma->0) =     1794.29071922


--------------------------------------------------------------------------------------------------------




--------------------------------------- Iteration      1(   2)  ---------------------------------------


     EDDAV:  cpu time   11.0894: real time   11.1035
       DOS:  cpu time    0.0008: real time    0.0008
    --------------------------------------------
      LOOP:  cpu time   11.0902: real time   11.1043

 eigenvalue-minimisations  :  1452
 total energy-change (2. order) :-0.2485811E+04  (-0.2287839E+04)
 number of electron     768.0000000 magnetization 
 augmentation part      768.0000000 magnetization 

 Free energy of the ion-electron system (eV)
  ---------------------------------------------------
  alpha Z        PSCENC =       -51.77449891
  Ewald energy   TEWEN  =    -18779.26261193
  -Hartree energ DENC   =       -26.59119506
  -exchange      EXHF   =         0.00000000
  -V(xc)+E(xc)   XCENC  =     -6720.36127826
  PAW double counting   =     16947.24022423    -8766.87891371
  entropy T*S    EENTRO =         0.14101721
  eigenvalues    EBANDS =      3000.81606179
  atomic energy  EATOM  =     13705.16559714
  Solvation  Ediel_sol  =         0.00000000
  ---------------------------------------------------
  free energy    TOTEN  =      -691.50559749 eV

  energy without entropy =     -691.64661470  energy(sigma->0) =     -691.55260322


--------------------------------------------------------------------------------------------------------




--------------------------------------- Iteration      1(   3)  ---------------------------------------


     EDDAV:  cpu time   10.0639: real time   10.0798
       DOS:  cpu time    0.0008: real time    0.0008
    --------------------------------------------
      LOOP:  cpu time   10.0647: real time   10.0806

 eigenvalue-minimisations  :  1212
 total energy-change (2. order) :-0.2618279E+03  (-0.2494733E+03)
 number of electron     768.0000000 magnetization 
 augmentation part      768.0000000 magnetization 

 Free energy of the ion-electron system (eV)
  ---------------------------------------------------
  alpha Z        PSCENC =       -51.77449891
[...]
     16.17416     12.07187     12.14042         0.128980     -0.051354      0.162729
     16.00888     14.10551     14.05452         0.577854     -0.461419      0.869471
      2.02114     12.07040     14.20598        -0.299908      0.106401      0.238892
      1.93046     14.16170     12.20051         0.196902     -0.156822      0.040593
      4.02427      0.01006      0.11435         0.193608     -0.247013     -0.189174
      3.95441      1.94140      1.98470         0.156589      0.286002      0.367889
      6.04197      0.05297      2.21995        -0.277102     -0.218321     -0.494461
      6.03070      1.96438     16.00843        -0.059341     -0.060134      0.759540
      4.13210     16.19003      4.16878        -0.463647      0.005061     -0.301231
      4.05326      2.11942      5.95757        -0.083707     -0.045959      0.157103
      6.05945      0.08575      6.05651         0.055288      0.314344      0.377668
      6.04019      2.26368      3.98419        -0.451315     -0.500707      0.351593
      4.11766      0.14803      8.12152        -0.121677     -0.097900     -0.201848
      3.98133      1.99345     10.03783         0.067705      0.384061      0.450538
      6.19359      0.32710     10.10458        -0.414168     -0.472253      0.276444
      6.22496      2.21463      8.02296        -0.675948     -0.299117      0.243146
      3.96099     16.18309     12.27688         0.105926      0.198856      0.204703
      3.96973      1.91991     14.16797        -0.079153     -0.087772     -0.004534
      6.12941     16.06705     14.25062        -0.593475      0.710991     -0.174688
      5.92428      2.06918     12.30057         0.247568     -0.415890     -0.426350
      3.98640      3.87498     16.06564        -0.280974      0.432867      0.329215
      4.02742      5.99379      1.88374        -0.030538      0.096897      0.036360
      5.90632      4.14482      1.85588         0.084492     -0.434631      0.185258
      6.02191      6.12458     16.09244        -0.021094     -0.116820      0.086032
      4.02617      4.08062      4.08896        -0.139310      0.171292     -0.456944
      3.92731      6.31106      6.11063         0.317838     -0.613961      0.032540
      5.99062      4.27604      6.08496         0.393197     -0.141080     -0.207669
      6.00735      6.18174      4.09258         0.238033     -0.158561      0.007613
      4.10908      4.00534      7.97037        -0.227048      0.516670      0.279189
      4.10912      5.95207     10.05907        -0.282128      0.407138      0.084750
      5.99605      3.98956     10.13026         0.239936     -0.146355     -0.116720
      6.09438      6.08932      8.13556         0.299633      0.215013     -0.105878
      3.87880      3.87932     12.09766         0.175132      0.315417     -0.004297
      4.07916      6.02729     14.07292        -0.322527     -0.153513      0.243743
      6.00204      3.99614     14.18713        -0.118207      0.163570     -0.340484
      5.98468      5.92696     12.08815         0.269785      0.274886      0.061365
      4.04493      8.12026     16.10473        -0.040254     -0.159163      0.275285
      4.14320     10.11832      2.19107        -0.079118     -0.194175     -0.417979
      6.04982      8.04595      2.00578        -0.258706      0.302474      0.231069
      6.02067     10.09231      0.05543        -0.094065      0.178009     -0.191361
      4.17508      8.11528      4.18409        -0.257147      0.561817     -0.533775
      4.01405     10.35918      6.15125         0.625715     -0.516771      0.060695
      6.22949      8.23996      6.05305        -0.177283     -0.073469      0.240590
      6.18041     10.26040      4.00117        -0.099729     -0.037341      0.325466
      4.18942      8.17099      8.10341        -0.090796      0.318359      0.149001
      4.00892     10.27035     10.25161         0.358207     -0.271904     -0.121722
      6.21166      8.22626     10.03586        -0.229143      0.026015      0.395232
      6.06425     10.32793      8.13785         0.181768     -0.085222      0.255436
      4.10027      8.06719     12.13501        -0.043404      0.093688     -0.256612
      3.97286     10.12552     14.14686         0.199548     -0.039414      0.272877
      6.07976      8.10870     14.18185         0.103552     -0.135350     -0.051435
      6.14796     10.14142     12.34859        -0.008940     -0.103398     -0.536027
      4.02287     12.13317      0.14550         0.156003     -0.224888     -0.488897
      4.05083     14.20064      2.07704        -0.071601      0.024327      0.268592
      6.17115     12.33326      1.93058        -1.068554     -1.016310      0.691921
      5.94328     14.25188     16.18898         0.204039     -0.318369      0.408869
      4.06065     12.16600      4.03660         0.174143      0.202477      0.228800
      4.09830     14.17659      6.21733        -0.171689      0.286201     -0.242202
      6.03652     12.21256      6.18256         0.507651     -0.020560      0.077344
      6.16856     14.14005      4.32468        -0.124684      0.120586     -0.617886
      4.05772     12.42095      8.27553         0.179252     -0.352074      0.231959
      4.11553     14.51618     10.29311        -0.068291     -0.691169     -0.452725
      6.09528     12.29415     10.42140        -0.188812     -0.255062     -0.611402
      6.05185     14.34701      8.22516         0.292536     -0.028637      0.215810
      3.94393     12.24114     12.23059         0.166362     -0.022893     -0.075211
      3.96938     14.15973     14.30004         0.185144     -0.126394     -0.356947
      6.00701     12.08482     14.16157         0.063865      0.338083      0.531077
      6.07172     14.24728     12.23169        -0.312679      0.146815      0.268676
      8.09416     16.12647      0.19411        -0.952716      0.073948     -0.606466
      7.81545      2.10927      2.02585         0.521169     -0.089590     -0.455983
      9.86223     16.01789      1.96785         1.061817      0.306339      0.635594
      9.90187      2.02114      0.04556         0.088525     -0.213168      0.059055
      8.02834      0.14157      4.02349         0.140069     -0.093790      0.455827
      7.99742      2.16398      6.11468         0.311739      0.033297     -0.674560
      9.95540      0.17522      6.22482         0.482859     -0.043862     -0.397397
     10.02240      2.14201      3.94986        -0.226353     -0.453155      0.326214
      8.15200      0.16767      8.19934        -0.427758     -0.225132     -0.128903
      8.17906      2.11831     10.12773        -0.352368      0.100197      0.032657
     10.02296     16.15665     10.05501         0.535190      0.053224      0.480138
     10.04777      2.20629      8.19452         0.643566     -0.427024     -0.456732
      8.06049     16.17209     12.19313        -0.137458      0.447904      0.090764
      8.01962      1.98700     14.19535        -0.094543      0.011981     -0.226235
      9.88208     16.17818     14.32245         0.366473     -0.146675     -0.157525
     10.00444      2.03602     12.08901         0.152380     -0.229934      0.218377
      7.92101      4.08676     16.12881         0.208073     -0.152476      0.437888
      7.90586      6.08651      2.11574         0.627438      0.061597     -0.390165
      9.94991      3.97388      2.01663         0.153693      0.527101     -0.355884
     10.08601      5.99137     16.16053        -0.100335      0.050655      0.439116
      7.95078      4.07973      3.93952         0.297928      0.377142      0.536224
      8.28733      6.05517      6.20486        -0.454580      0.503720     -0.444405
     10.14746      4.06376      6.01602        -0.242233      0.041261     -0.270448
     10.07843      6.11996      4.00570         0.118877     -0.150025      0.069186
      8.18952      4.06110      8.05209        -0.312772      0.759370      0.294571
      8.12112      6.09967     10.16743         0.028267      0.042103     -0.134007
     10.14699      4.15274     10.07509        -0.028508      0.262572      0.082800
     10.35454      6.27561      8.04645        -0.645171     -0.171962      0.057759
      8.01289      3.94453     12.06451         0.077652      0.426764      0.361590
      8.06707      5.90020     14.11575        -0.145167      0.533588     -0.093771
     10.00135      3.92729     14.28898         0.072563      0.007569     -0.468651
     10.21969      6.00852     12.32052        -0.496148     -0.113883     -0.756812
      7.99248      8.10196      0.07677         0.540009     -0.285953     -0.132439
      8.01067     10.19924      1.96773         0.334857     -0.341790      0.295203
     10.18863      8.14838      2.07946        -0.214088     -0.432738     -0.467719
     10.17927     10.10177      0.08385         0.020732     -0.202364     -0.044981
      8.17094      8.22204      4.10227        -0.046685     -0.444440     -0.263073
      8.21832     10.12498      6.04684         0.109810      0.635895      0.266472
     10.28828      8.20579      6.10097         0.136311     -0.273350     -0.131436
     10.30723      9.95866      4.01936         0.059665      0.619743      0.336616
      8.16736      8.25529      8.11204         0.060982     -0.161398      0.055215
      8.16124     10.43751     10.20930        -0.206949     -0.387529     -0.095336
     10.02328      8.18803     10.22279         0.386164     -0.095834     -0.272161
     10.21225     10.18006      8.06293         0.151390      0.075983      0.102404
      8.11074      8.12974     12.16813        -0.015684     -0.088672      0.202942
      8.20736     10.01327     14.32375        -0.090937      0.182072     -0.234229
     10.20195      7.89923     14.23875        -0.160943      0.585594     -0.050116
     10.13990     10.24564     12.12544        -0.121350     -0.406097      0.339603
      8.01573     12.09321      0.05003         0.296881      0.100725     -0.445819
      7.88800     14.09850      2.12276         0.924593      0.716309      0.072446
     10.17286     12.01299      2.19548         0.142324      0.300344     -0.296938
     10.08518     13.90726      0.09112         0.094732      0.381279      0.119063
      8.23557     12.13258      4.11807        -0.166129      0.029109      0.305945
      8.06542     14.41647      6.32311         0.286723     -0.467946     -0.260480
     10.40974     12.32401      6.12980        -0.603269     -0.622925     -0.115790
      9.99931     14.24754      4.16094         0.147614      0.083469     -0.007846
      8.18913     12.29671      8.12064        -0.052021      0.018317      0.040113
      8.00266     14.26254     10.28682         0.396594     -0.141191     -0.404425
     10.32593     12.10574     10.07351        -0.289691      0.238419      0.351658
     10.41946     14.04354      8.16826        -0.935730      0.657423     -0.010425
      8.16192     12.32620     12.36432         0.171783     -0.385929     -0.117029
      7.96440     14.21132     14.31776         0.500033     -0.535999      0.121417
     10.22627     12.04069     14.31309        -0.285346      0.118999     -0.326180
     10.15900     14.33064     12.32283        -0.160139     -0.593596     -0.310829
     12.03582     16.07465     16.10505         0.015393      0.072778      0.295786
     11.97043      1.92881      1.84609         0.102110     -0.204438      0.374950
     14.08210     16.13887      1.91215        -0.164409      0.037639      0.210366
     14.12410      2.00771     16.17167        -0.211546     -0.169763     -0.148446
     11.95247      0.06353      4.11322         0.113058     -0.279513     -0.398880
     12.13271      2.07591      5.89124        -0.021503      0.004901      0.532338
     14.18851      0.09067      5.93991        -0.048113     -0.186739      0.320801
     14.07817      1.99122      3.82425         0.163436      0.039276     -0.005517
     12.08159      0.10150      8.07548         0.152477      0.242320      0.013222
     12.07192      2.07423     10.13705        -0.057091     -0.234555     -0.323025
     13.95453      0.01913     10.21748         0.649880      0.010577     -0.371034
     14.15941      2.09081      7.93372        -0.193362     -0.214381     -0.105910
     12.13169     16.15611     12.16641        -0.352091      0.224892      0.110730
     11.85234      1.91501     14.13022         0.592162      0.089134      0.128488
     14.11938      0.04628     14.16088        -0.382451     -0.280217      0.327470
     14.16264      1.98692     12.17202        -0.263513     -0.124512     -0.162963
     12.11828      3.89348      0.00556        -0.246370      0.200539     -0.164409
     12.16237      6.08650      2.01358        -0.382996     -0.253750     -0.214545
     14.16279      4.12711      1.91592        -0.389886     -0.806921      0.231962
     14.07619      5.96021     16.13277         0.232468      0.006752     -0.366066
     12.06670      3.93944      3.93312         0.151924      0.575205     -0.315533
     12.32897      6.05454      5.93044        -0.377411      0.192427     -0.076665
     14.25447      4.08380      5.77690        -0.268380      0.008094      0.470845
     14.22972      6.25378      3.92347         0.249674     -0.765489      0.081632
     12.08044      4.16719      7.85637         0.464621     -0.488409      0.370393
     12.25739      6.03945      9.88838         0.023431      0.094731      0.514416
     14.12409      3.89448      9.89078        -0.014261      0.184457      0.251613
     14.31787      6.04281      7.92304        -0.126425      0.023537     -0.185884
     12.03930      3.95695     12.06282         0.273774      0.099000      0.159509
     12.11920      5.77687     14.17294         0.200633      0.452679     -0.012248
     14.15619      3.99354     14.07052        -0.118547     -0.217041      0.157387
     14.19907      5.87749     11.84090        -0.424349      0.265455      0.904684
     12.21007      8.05484     16.11105        -0.142985     -0.052298      0.044637
     12.29200     10.02846      1.97647         0.075430      0.221340     -0.052995
     14.27842      8.05808      1.79482         0.108936      0.265975      0.136495
     14.36369     10.15520     16.05062        -0.240612     -0.453176      0.631411
     12.32375      8.00983      3.95137        -0.476409      0.533618      0.119129
     12.37807     10.13742      6.05857        -0.581786      0.179057      0.141980
     14.16405      8.17690      6.05237         0.557632     -0.223717      0.121456
     14.25834     10.16181      4.06343         0.252547     -0.234330     -0.037876
     12.27023      8.15278      8.17471         0.248014      0.263561     -0.311477
     12.30518      9.99142     10.20267        -0.169011      0.343996     -0.413712
     14.45505      8.08358      9.97933        -1.008592     -0.131789      0.188457
     14.35396     10.31257      8.08005        -0.125338     -0.435361      0.154330
     12.16189      7.99350     12.03813         0.272595     -0.128674      0.296276
     12.26664     10.10068     14.13545        -0.184484     -0.620586     -0.146841
     14.19119      7.88080     14.12104        -0.046265      0.201502     -0.378334
     14.28083     10.00529     12.01164        -0.114361      0.008849      0.592374
     12.29286     12.00675     16.12885        -0.144465      0.220084      0.748378
     12.17067     14.17126      2.07603        -0.213099     -0.297625     -0.099380
     14.37534     11.99145      2.10957        -0.437213      0.264238     -0.388319
     14.32305     14.04716      0.02059        -0.648091      0.038178      0.184321
     12.23055     12.12265      4.08927        -0.006162      0.085551     -0.207183
     12.21268     14.33798      6.15623         0.196568     -0.077488     -0.347884
     14.24240     12.17970      6.03251         0.159313      0.181536      0.215969
     14.14526     14.15442      4.04362         0.080203      0.058767      0.102597
     12.32160     12.07780      8.16859         0.129050     -0.053839     -0.089635
     12.18748     14.16928     10.10249        -0.244588     -0.009685      0.625739
     14.21918     12.24547     10.25844        -0.030113     -0.517361     -0.385679
     14.12958     14.25173      8.24015         0.363216      0.108096     -0.474978
     12.12772     12.05390     12.16805         0.260836      0.318229      0.075305
     12.15184     14.12119     14.24568        -0.133303     -0.085917     -0.027190
     14.14446     12.08879     14.17010         0.354646     -0.001474     -0.342128
     14.05962     14.15254     12.19329         0.026623     -0.063440     -0.099242
 -----------------------------------------------------------------------------------
    total drift:                               -0.002600     -0.010494     -0.004454


--------------------------------------------------------------------------------------------------------



  FREE ENERGIE OF THE ION-ELECTRON SYSTEM (eV)
  ---------------------------------------------------
  free  energy   TOTEN  =      -945.34827877 eV

  energy  without entropy=     -945.07444787  energy(sigma->0) =     -945.25700180
 
 d Force =-0.1179233E+00[-0.173E+00,-0.624E-01]  d Energy =-0.1177947E+00-0.129E-03
 d Force =-0.9802363E+00[-0.137E+01,-0.590E+00]  d Ewald  =-0.9802409E+00 0.462E-05


--------------------------------------------------------------------------------------------------------


    POTLOK:  cpu time    0.2221: real time    0.2223


--------------------------------------------------------------------------------------------------------


scaling velocities: factor=    1.0060
           RANDOM_SEED =         164444466             1536                0
   IONSTEP:  cpu time    0.0001: real time    0.0001

  ENERGY OF THE ELECTRON-ION-THERMOSTAT SYSTEM (eV)
  ---------------------------------------------------
% ion-electron   TOTEN  =      -945.348279  see above
  kinetic energy EKIN   =         9.888450
  kin. lattice  EKIN_LAT=         0.000000  (temperature  300.00 K)
  nose potential ES     =         0.000000
  nose kinetic   EPS    =         0.000000
  ---------------------------------------------------
  total energy   ETOTAL =      -935.459829 eV

  maximum distance moved by ions :      0.15E-02


 mean value of Nose-termostat <S>:     1.000 mean value of <T> :   300.000
 mean temperature <T/S>/<1/S>  :   300.000

    WAVPRE:  cpu time    0.8382: real time    0.8476
    FEWALD:  cpu time    0.0355: real time    0.0355

 real space projection operators:
  total allocation   :      15886.00 KBytes
  max/ min on nodes  :       7990.44       7895.56

    ORTHCH:  cpu time    0.9105: real time    0.9117
 Prediction of Wavefunctions ALPHA= 2.003 BETA=-1.008
    POTLOK:  cpu time    0.2224: real time    0.2227
    EDDIAG:  cpu time    1.3708: real time    1.3731
 writing wavefunctions
     LOOP+:  cpu time   35.1399: real time   35.8454
    4ORBIT:  cpu time    0.0000: real time    0.0000

 total amount of memory used by VASP MPI-rank0   102226. kBytes
=======================================================================

   base      :      30000. kBytes
   nonlr-proj:       9732. kBytes
   fftplans  :       8940. kBytes
   grid      :      14016. kBytes
   one-center:        196. kBytes
   wavefun   :      39342. kBytes
 
  
  
 General timing and accounting informations for this job:
 ========================================================
  
                  Total CPU time used (sec):     3328.396
                            User time (sec):     3321.460
                          System time (sec):        6.935
                         Elapsed time (sec):     3336.883
  
                   Maximum memory used (kb):      247664.
                   Average memory used (kb):           0.
  
                          Minor page faults:      2053456
                          Major page faults:           56
                 Voluntary context switches:        11302
