Al256                                   
           1
    16.200055    0.000000    0.000000
     0.000000   16.200055    0.000000
     0.000000    0.000000   16.200055
   Al
 256
Direct configuration=     1
   0.00000000  0.00000000  0.00000000
   0.00000000  0.12500000  0.12500000
   0.12500000  0.00000000  0.12500000
   0.12500000  0.12500000  0.00000000
   0.00000000  0.00000000  0.25000000
   0.00000000  0.12500000  0.37500000
   0.12500000  0.00000000  0.37500000
   0.12500000  0.12500000  0.25000000
   0.00000000  0.00000000  0.50000000
   0.00000000  0.12500000  0.62500000
   0.12500000  0.00000000  0.62500000
   0.12500000  0.12500000  0.50000000
   0.00000000  0.00000000  0.75000000
   0.00000000  0.12500000  0.87500000
   0.12500000  0.00000000  0.87500000
   0.12500000  0.12500000  0.75000000
   0.00000000  0.25000000  0.00000000
   0.00000000  0.37500000  0.12500000
   0.12500000  0.25000000  0.12500000
   0.12500000  0.37500000  0.00000000
   0.00000000  0.25000000  0.25000000
   0.00000000  0.37500000  0.37500000
   0.12500000  0.25000000  0.37500000
   0.12500000  0.37500000  0.25000000
   0.00000000  0.25000000  0.50000000
   0.00000000  0.37500000  0.62500000
   0.12500000  0.25000000  0.62500000
   0.12500000  0.37500000  0.50000000
   0.00000000  0.25000000  0.75000000
   0.00000000  0.37500000  0.87500000
   0.12500000  0.25000000  0.87500000
   0.12500000  0.37500000  0.75000000
   0.00000000  0.50000000  0.00000000
   0.00000000  0.62500000  0.12500000
   0.12500000  0.50000000  0.12500000
   0.12500000  0.62500000  0.00000000
   0.00000000  0.50000000  0.25000000
   0.00000000  0.62500000  0.37500000
   0.12500000  0.50000000  0.37500000
   0.12500000  0.62500000  0.25000000
   0.00000000  0.50000000  0.50000000
   0.00000000  0.62500000  0.62500000
   0.12500000  0.50000000  0.62500000
   0.12500000  0.62500000  0.50000000
   0.00000000  0.50000000  0.75000000
   0.00000000  0.62500000  0.87500000
   0.12500000  0.50000000  0.87500000
   0.12500000  0.62500000  0.75000000
   0.00000000  0.75000000  0.00000000
   0.00000000  0.87500000  0.12500000
   0.12500000  0.75000000  0.12500000
   0.12500000  0.87500000  0.00000000
   0.00000000  0.75000000  0.25000000
   0.00000000  0.87500000  0.37500000
   0.12500000  0.75000000  0.37500000
   0.12500000  0.87500000  0.25000000
   0.00000000  0.75000000  0.50000000
   0.00000000  0.87500000  0.62500000
   0.12500000  0.75000000  0.62500000
   0.12500000  0.87500000  0.50000000
   0.00000000  0.75000000  0.75000000
   0.00000000  0.87500000  0.87500000
   0.12500000  0.75000000  0.87500000
   0.12500000  0.87500000  0.75000000
   0.25000000  0.00000000  0.00000000
   0.25000000  0.12500000  0.12500000
   0.37500000  0.00000000  0.12500000
   0.37500000  0.12500000  0.00000000
   0.25000000  0.00000000  0.25000000
   0.25000000  0.12500000  0.37500000
   0.37500000  0.00000000  0.37500000
   0.37500000  0.12500000  0.25000000
   0.25000000  0.00000000  0.50000000
   0.25000000  0.12500000  0.62500000
   0.37500000  0.00000000  0.62500000
   0.37500000  0.12500000  0.50000000
   0.25000000  0.00000000  0.75000000
   0.25000000  0.12500000  0.87500000
   0.37500000  0.00000000  0.87500000
   0.37500000  0.12500000  0.75000000
   0.25000000  0.25000000  0.00000000
   0.25000000  0.37500000  0.12500000
   0.37500000  0.25000000  0.12500000
   0.37500000  0.37500000  0.00000000
   0.25000000  0.25000000  0.25000000
   0.25000000  0.37500000  0.37500000
   0.37500000  0.25000000  0.37500000
   0.37500000  0.37500000  0.25000000
   0.25000000  0.25000000  0.50000000
   0.25000000  0.37500000  0.62500000
   0.37500000  0.25000000  0.62500000
   0.37500000  0.37500000  0.50000000
   0.25000000  0.25000000  0.75000000
   0.25000000  0.37500000  0.87500000
   0.37500000  0.25000000  0.87500000
   0.37500000  0.37500000  0.75000000
   0.25000000  0.50000000  0.00000000
   0.25000000  0.62500000  0.12500000
   0.37500000  0.50000000  0.12500000
   0.37500000  0.62500000  0.00000000
   0.25000000  0.50000000  0.25000000
   0.25000000  0.62500000  0.37500000
   0.37500000  0.50000000  0.37500000
   0.37500000  0.62500000  0.25000000
   0.25000000  0.50000000  0.50000000
   0.25000000  0.62500000  0.62500000
   0.37500000  0.50000000  0.62500000
   0.37500000  0.62500000  0.50000000
   0.25000000  0.50000000  0.75000000
   0.25000000  0.62500000  0.87500000
   0.37500000  0.50000000  0.87500000
   0.37500000  0.62500000  0.75000000
   0.25000000  0.75000000  0.00000000
   0.25000000  0.87500000  0.12500000
   0.37500000  0.75000000  0.12500000
   0.37500000  0.87500000  0.00000000
   0.25000000  0.75000000  0.25000000
   0.25000000  0.87500000  0.37500000
   0.37500000  0.75000000  0.37500000
   0.37500000  0.87500000  0.25000000
   0.25000000  0.75000000  0.50000000
   0.25000000  0.87500000  0.62500000
   0.37500000  0.75000000  0.62500000
   0.37500000  0.87500000  0.50000000
   0.25000000  0.75000000  0.75000000
   0.25000000  0.87500000  0.87500000
   0.37500000  0.75000000  0.87500000
   0.37500000  0.87500000  0.75000000
   0.50000000  0.00000000  0.00000000
   0.50000000  0.12500000  0.12500000
   0.62500000  0.00000000  0.12500000
   0.62500000  0.12500000  0.00000000
   0.50000000  0.00000000  0.25000000
   0.50000000  0.12500000  0.37500000
   0.62500000  0.00000000  0.37500000
   0.62500000  0.12500000  0.25000000
   0.50000000  0.00000000  0.50000000
   0.50000000  0.12500000  0.62500000
   0.62500000  0.00000000  0.62500000
   0.62500000  0.12500000  0.50000000
   0.50000000  0.00000000  0.75000000
   0.50000000  0.12500000  0.87500000
   0.62500000  0.00000000  0.87500000
   0.62500000  0.12500000  0.75000000
   0.50000000  0.25000000  0.00000000
   0.50000000  0.37500000  0.12500000
   0.62500000  0.25000000  0.12500000
   0.62500000  0.37500000  0.00000000
   0.50000000  0.25000000  0.25000000
   0.50000000  0.37500000  0.37500000
   0.62500000  0.25000000  0.37500000
   0.62500000  0.37500000  0.25000000
   0.50000000  0.25000000  0.50000000
   0.50000000  0.37500000  0.62500000
   0.62500000  0.25000000  0.62500000
   0.62500000  0.37500000  0.50000000
   0.50000000  0.25000000  0.75000000
   0.50000000  0.37500000  0.87500000
   0.62500000  0.25000000  0.87500000
   0.62500000  0.37500000  0.75000000
   0.50000000  0.50000000  0.00000000
   0.50000000  0.62500000  0.12500000
   0.62500000  0.50000000  0.12500000
   0.62500000  0.62500000  0.00000000
   0.50000000  0.50000000  0.25000000
   0.50000000  0.62500000  0.37500000
   0.62500000  0.50000000  0.37500000
   0.62500000  0.62500000  0.25000000
   0.50000000  0.50000000  0.50000000
   0.50000000  0.62500000  0.62500000
   0.62500000  0.50000000  0.62500000
   0.62500000  0.62500000  0.50000000
   0.50000000  0.50000000  0.75000000
   0.50000000  0.62500000  0.87500000
   0.62500000  0.50000000  0.87500000
   0.62500000  0.62500000  0.75000000
   0.50000000  0.75000000  0.00000000
   0.50000000  0.87500000  0.12500000
   0.62500000  0.75000000  0.12500000
   0.62500000  0.87500000  0.00000000
   0.50000000  0.75000000  0.25000000
   0.50000000  0.87500000  0.37500000
   0.62500000  0.75000000  0.37500000
   0.62500000  0.87500000  0.25000000
   0.50000000  0.75000000  0.50000000
   0.50000000  0.87500000  0.62500000
   0.62500000  0.75000000  0.62500000
   0.62500000  0.87500000  0.50000000
   0.50000000  0.75000000  0.75000000
   0.50000000  0.87500000  0.87500000
   0.62500000  0.75000000  0.87500000
   0.62500000  0.87500000  0.75000000
   0.75000000  0.00000000  0.00000000
   0.75000000  0.12500000  0.12500000
   0.87500000  0.00000000  0.12500000
   0.87500000  0.12500000  0.00000000
   0.75000000  0.00000000  0.25000000
   0.75000000  0.12500000  0.37500000
   0.87500000  0.00000000  0.37500000
   0.87500000  0.12500000  0.25000000
   0.75000000  0.00000000  0.50000000
   0.75000000  0.12500000  0.62500000
   0.87500000  0.00000000  0.62500000
   0.87500000  0.12500000  0.50000000
   0.75000000  0.00000000  0.75000000
   0.75000000  0.12500000  0.87500000
   0.87500000  0.00000000  0.87500000
   0.87500000  0.12500000  0.75000000
   0.75000000  0.25000000  0.00000000
   0.75000000  0.37500000  0.12500000
   0.87500000  0.25000000  0.12500000
   0.87500000  0.37500000  0.00000000
   0.75000000  0.25000000  0.25000000
   0.75000000  0.37500000  0.37500000
   0.87500000  0.25000000  0.37500000
   0.87500000  0.37500000  0.25000000
   0.75000000  0.25000000  0.50000000
   0.75000000  0.37500000  0.62500000
   0.87500000  0.25000000  0.62500000
   0.87500000  0.37500000  0.50000000
   0.75000000  0.25000000  0.75000000
   0.75000000  0.37500000  0.87500000
   0.87500000  0.25000000  0.87500000
   0.87500000  0.37500000  0.75000000
   0.75000000  0.50000000  0.00000000
   0.75000000  0.62500000  0.12500000
   0.87500000  0.50000000  0.12500000
   0.87500000  0.62500000  0.00000000
   0.75000000  0.50000000  0.25000000
   0.75000000  0.62500000  0.37500000
   0.87500000  0.50000000  0.37500000
   0.87500000  0.62500000  0.25000000
   0.75000000  0.50000000  0.50000000
   0.75000000  0.62500000  0.62500000
   0.87500000  0.50000000  0.62500000
   0.87500000  0.62500000  0.50000000
   0.75000000  0.50000000  0.75000000
   0.75000000  0.62500000  0.87500000
   0.87500000  0.50000000  0.87500000
   0.87500000  0.62500000  0.75000000
   0.75000000  0.75000000  0.00000000
   0.75000000  0.87500000  0.12500000
   0.87500000  0.75000000  0.12500000
   0.87500000  0.87500000  0.00000000
   0.75000000  0.75000000  0.25000000
   0.75000000  0.87500000  0.37500000
   0.87500000  0.75000000  0.37500000
   0.87500000  0.87500000  0.25000000
   0.75000000  0.75000000  0.50000000
   0.75000000  0.87500000  0.62500000
   0.87500000  0.75000000  0.62500000
   0.87500000  0.87500000  0.50000000
   0.75000000  0.75000000  0.75000000
   0.75000000  0.87500000  0.87500000
   0.87500000  0.75000000  0.87500000
   0.87500000  0.87500000  0.75000000
Direct configuration=     2
   0.00002488  0.00028074  0.99947110
   0.99990936  0.12521779  0.12527337
   0.12518432  0.00058491  0.12514556
   0.12441582  0.12532963  0.99985796
   0.00020942  0.99968070  0.24972389
   0.00012329  0.12500122  0.37460670
   0.12485427  0.00001536  0.37474726
   0.12489767  0.12523630  0.24966506
   0.99959520  0.99946478  0.49959127
   0.99978257  0.12508712  0.62465542
   0.12487591  0.00005299  0.62517164
   0.12487190  0.12496687  0.49986664
   0.00028116  0.00036872  0.74948855
   0.99987846  0.12545153  0.87438911
   0.12446169  0.99967414  0.87568209
   0.12538079  0.12527366  0.74996856
   0.00031372  0.24945530  0.00048324
   0.99973007  0.37556837  0.12540027
   0.12513553  0.25035800  0.12501876
   0.12568763  0.37464256  0.99998190
   0.99967082  0.24938900  0.24922645
   0.99926674  0.37449986  0.37471478
   0.12469655  0.25008111  0.37516171
   0.12524115  0.37464746  0.25026614
   0.00003618  0.24987104  0.49956803
   0.00051223  0.37461041  0.62463168
   0.12555407  0.24996490  0.62460729
   0.12535931  0.37537852  0.49944058
   0.99995770  0.24963181  0.75013760
   0.99996811  0.37447454  0.87493834
   0.12434635  0.24984103  0.87549110
   0.12543024  0.37536111  0.74952463
   0.00052389  0.49990432  0.99990178
   0.99965477  0.62464743  0.12511197
   0.12507354  0.50049483  0.12500010
   0.12539835  0.62480024  0.99908480
   0.00062913  0.50072636  0.24995875
   0.00051095  0.62464843  0.37570645
   0.12507701  0.50017768  0.37542258
   0.12520197  0.62487974  0.24992701
   0.00046262  0.49982031  0.50021002
   0.99969238  0.62513692  0.62520125
   0.12549181  0.50012717  0.62521395
   0.12493152  0.62506976  0.50010024
   0.99986271  0.49995918  0.74985093
   0.00011899  0.62508625  0.87423803
   0.12474667  0.49995769  0.87444009
   0.12530328  0.62517153  0.75013889
   0.00014730  0.75011725  0.00012842
   0.99987743  0.87503313  0.12491535
   0.12462618  0.75006207  0.12555681
   0.12473050  0.87469013  0.00015880
   0.00026319  0.75054831  0.25034062
   0.99955252  0.87513416  0.37482152
   0.12496559  0.75047116  0.37499774
   0.12482922  0.87527355  0.24972246
   0.00040693  0.75060244  0.49958751
   0.99982999  0.87476904  0.62477664
   0.12526077  0.74947745  0.62467336
   0.12520310  0.87538918  0.50040559
   0.00034274  0.75047758  0.75026690
   0.00044176  0.87484736  0.87525372
   0.12501423  0.74974951  0.87501857
   0.12496731  0.87528799  0.75020490
   0.24991008  0.00013529  0.00018427
   0.24995487  0.12497218  0.12481560
   0.37544077  0.99989561  0.12455379
   0.37497338  0.12538468  0.00079672
   0.24998213  0.99986530  0.25043029
   0.24982635  0.12525977  0.37472808
   0.37562026  0.99953932  0.37499833
   0.37529190  0.12538143  0.25066995
   0.24961164  0.99997429  0.50014535
   0.24956139  0.12497496  0.62461740
   0.37507610  0.99968862  0.62461965
   0.37496208  0.12442397  0.50028081
   0.25007067  0.99992198  0.75015055
   0.24969987  0.12512895  0.87496449
   0.37459389  0.00028439  0.87461385
   0.37529267  0.12510169  0.74975192
   0.24989426  0.25046789  0.99980604
   0.24880539  0.37545939  0.12466110
   0.37533293  0.24985602  0.12555845
   0.37489785  0.37547259  0.99997473
   0.25053698  0.24949844  0.25033308
   0.25015843  0.37490299  0.37505471
   0.37476192  0.24977899  0.37485885
   0.37479397  0.37556346  0.24997802
   0.25014496  0.24949197  0.50013908
   0.24983289  0.37479105  0.62501229
   0.37506294  0.25108670  0.62498422
   0.37535041  0.37526282  0.50046770
   0.24989797  0.24988244  0.74970577
   0.25023791  0.37533919  0.87519431
   0.37483556  0.25018717  0.87485309
   0.37518625  0.37531868  0.75018289
   0.25023206  0.49965145  0.99958162
   0.24940329  0.62483804  0.12522327
   0.37491621  0.50006807  0.12538308
   0.37484131  0.62537237  0.00010353
   0.25033610  0.49995316  0.24955137
   0.24981690  0.62483167  0.37572550
   0.37455410  0.49960349  0.37523589
   0.37474421  0.62532699  0.25004702
   0.24957773  0.49910357  0.50014929
   0.24993180  0.62510682  0.62519354
   0.37503830  0.50004223  0.62556362
   0.37500575  0.62547191  0.50013147
   0.24948392  0.50019952  0.74996935
   0.25024426  0.62482973  0.87582355
   0.37477297  0.49949239  0.87501013
   0.37472326  0.62454222  0.74985046
   0.25037495  0.74987896  0.99963542
   0.24988359  0.87463575  0.12555697
   0.37431164  0.74895783  0.12513293
   0.37563709  0.87454626  0.00086221
   0.25089276  0.74997179  0.24987409
   0.25001077  0.87484899  0.37540856
   0.37588886  0.74974717  0.37525193
   0.37459409  0.87528706  0.24995795
   0.25069130  0.75009575  0.49993050
   0.24963066  0.87389678  0.62457948
   0.37462276  0.75022201  0.62496360
   0.37554317  0.87488920  0.49937571
   0.25052089  0.75012591  0.75019918
   0.24956755  0.87480275  0.87474776
   0.37492181  0.74972989  0.87519701
   0.37537295  0.87470580  0.75022197
   0.49956660  0.99998740  0.99965346
   0.49980894  0.12493107  0.12556709
   0.62544498  0.00041437  0.12560701
   0.62494007  0.12525923  0.99979234
   0.50027621  0.00064412  0.25052605
   0.49950201  0.12455168  0.37513394
   0.62515681  0.00052506  0.37471554
   0.62558989  0.12553982  0.25052070
   0.49986992  0.00004514  0.49988173
   0.50020301  0.12537643  0.62498205
   0.62476360  0.00033456  0.62451774
   0.62557757  0.12480236  0.49979530
   0.50044947  0.99995017  0.75068449
   0.50030379  0.12464590  0.87482470
   0.62488267  0.00057578  0.87454851
   0.62471900  0.12550408  0.75054495
   0.50066871  0.24954504  0.99960078
   0.49985008  0.37567309  0.12437338
   0.62484388  0.24958071  0.12453071
   0.62448320  0.37516402  0.00013078
   0.50028466  0.25042533  0.25077528
   0.49944303  0.37472342  0.37447083
   0.62484567  0.25056599  0.37500545
   0.62513047  0.37525244  0.24994962
   0.49996470  0.25072683  0.49975764
   0.49982542  0.37485691  0.62514644
   0.62491586  0.24930551  0.62512104
   0.62534547  0.37474860  0.49992641
   0.50008971  0.25023805  0.74914656
   0.50001596  0.37544150  0.87468345
   0.62497063  0.25024956  0.87513581
   0.62462111  0.37519453  0.74996678
   0.50005312  0.50004432  0.00006225
   0.50002120  0.62456882  0.12442978
   0.62499146  0.49981708  0.12416825
   0.62488615  0.62472355  0.99948413
   0.50022546  0.50011586  0.24975626
   0.49955991  0.62560330  0.37494392
   0.62464965  0.50042828  0.37514614
   0.62473725  0.62495586  0.24994690
   0.49997298  0.49964444  0.49998724
   0.50040585  0.62486264  0.62505626
   0.62557709  0.49946538  0.62456820
   0.62563620  0.62550536  0.49997245
   0.49981499  0.50020786  0.75105113
   0.50033250  0.62516135  0.87466168
   0.62488565  0.50055436  0.87481776
   0.62513774  0.62516059  0.75057829
   0.49985947  0.74935064  0.99998030
   0.50018071  0.87513020  0.12474498
   0.62591241  0.74999712  0.12530578
   0.62489193  0.87509439  0.99948140
   0.49985919  0.75038368  0.24995418
   0.49999866  0.87487596  0.37546409
   0.62449177  0.74958372  0.37534416
   0.62505820  0.87424487  0.24980397
   0.50016586  0.75024438  0.50009419
   0.50013379  0.87496660  0.62453868
   0.62488675  0.75007960  0.62564650
   0.62408801  0.87507180  0.49984086
   0.50064966  0.74968321  0.74984574
   0.50025678  0.87466380  0.87503935
   0.62425528  0.74935658  0.87487588
   0.62515999  0.87466644  0.74962249
   0.74949979  0.00022242  0.00128546
   0.74981573  0.12434807  0.12553257
   0.87499310  0.99965449  0.12508869
   0.87481971  0.12452612  0.00015572
   0.75003870  0.00015678  0.24937558
   0.75032207  0.12546195  0.37589754
   0.87495304  0.00002303  0.37534732
   0.87508346  0.12535538  0.24987042
   0.74976583  0.99975740  0.49974949
   0.75043753  0.12562162  0.62481358
   0.87486338  0.00030830  0.62483335
   0.87430832  0.12514415  0.49941720
   0.74987065  0.99907089  0.74974403
   0.74989594  0.12414364  0.87496024
   0.87501442  0.00037006  0.87535362
   0.87487529  0.12476707  0.75008819
   0.74948490  0.24999126  0.99923304
   0.75081668  0.37484043  0.12536217
   0.87528216  0.24950410  0.12506360
   0.87523620  0.37504449  0.99954562
   0.74985280  0.25049632  0.24982564
   0.74998065  0.37472616  0.37497699
   0.87467700  0.25040645  0.37512394
   0.87550539  0.37465887  0.24921409
   0.74990978  0.24976466  0.49963301
   0.74960649  0.37470311  0.62538191
   0.87457210  0.25034788  0.62508080
   0.87516963  0.37573046  0.50065253
   0.74977302  0.25027563  0.74979106
   0.74992879  0.37508255  0.87478893
   0.87465556  0.24935086  0.87582694
   0.87531730  0.37508336  0.75070654
   0.75007714  0.50025555  0.00009647
   0.74929205  0.62478080  0.12496350
   0.87562909  0.50038980  0.12487092
   0.87524213  0.62406822  0.00049779
   0.75023484  0.50006471  0.25031924
   0.75056596  0.62478800  0.37514727
   0.87512035  0.50001927  0.37469807
   0.87446223  0.62492792  0.25011474
   0.75005580  0.50044409  0.49983189
   0.75061785  0.62482863  0.62475111
   0.87388047  0.50039239  0.62464308
   0.87454503  0.62499445  0.49976136
   0.75013533  0.50059336  0.75006779
   0.75015817  0.62472122  0.87435439
   0.87464221  0.49996172  0.87503856
   0.87499217  0.62509225  0.74992371
   0.74989613  0.75026648  0.99992253
   0.74975013  0.87455067  0.12484616
   0.87506467  0.74988296  0.12534426
   0.87477512  0.87504378  0.00040183
   0.74979493  0.74977944  0.24948170
   0.75034465  0.87491701  0.37528926
   0.87470921  0.74941263  0.37592566
   0.87514865  0.87519958  0.25014639
   0.74891810  0.75030135  0.50076413
   0.75033578  0.87538968  0.62533568
   0.87493001  0.75006054  0.62479161
   0.87488675  0.87463842  0.49929946
   0.75025839  0.74964677  0.74994668
   0.74954711  0.87463272  0.87492859
   0.87511220  0.74952467  0.87478763
   0.87498595  0.87543488  0.75000319
Direct configuration=     3
   0.00004883  0.00056119  0.99894441
   0.99981872  0.12543275  0.12554554
   0.12536832  0.00116899  0.12528969
   0.12383343  0.12565890  0.99971633
   0.00041758  0.99936327  0.24944789
   0.00024614  0.12500228  0.37421288
   0.12470853  0.00003074  0.37449513
   0.12479609  0.12547301  0.24933074
   0.99919137  0.99893169  0.49918319
   0.99956491  0.12517502  0.62430884
   0.12475158  0.00010582  0.62534287
   0.12474188  0.12493197  0.49973174
   0.00056173  0.00073676  0.74897846
   0.99975605  0.12590168  0.87377892
   0.12392451  0.99935015  0.87636297
   0.12576103  0.12554695  0.74993712
   0.00062553  0.24891273  0.00096719
   0.99946326  0.37613610  0.12579863
   0.12527101  0.25071563  0.12503826
   0.12637111  0.37428698  0.99996267
   0.99934384  0.24877957  0.24845493
   0.99853485  0.37400092  0.37442871
   0.12439262  0.25016168  0.37532191
   0.12548140  0.37429554  0.25053333
   0.00007119  0.24974196  0.49913625
   0.00102380  0.37422144  0.62426417
   0.12610637  0.24993008  0.62421490
   0.12571757  0.37575444  0.49888122
   0.99991544  0.24926479  0.75027328
   0.99993741  0.37394944  0.87487788
   0.12369481  0.24968346  0.87598006
   0.12585919  0.37571915  0.74905058
   0.00104939  0.49980750  0.99980109
   0.99931225  0.62429816  0.12522391
   0.12514629  0.50098889  0.12499840
   0.12579543  0.62460046  0.99817207
   0.00125848  0.50145113  0.24991959
   0.00102172  0.62429833  0.37641166
   0.12515455  0.50035458  0.37584239
   0.12540425  0.62476181  0.24985688
   0.00092347  0.49964122  0.50042096
   0.99938473  0.62527369  0.62540187
   0.12598188  0.50025562  0.62542758
   0.12486397  0.62514074  0.50020137
   0.99972453  0.49991814  0.74970021
   0.00023702  0.62517127  0.87347774
   0.12449317  0.49991430  0.87388087
   0.12560661  0.62534365  0.75027728
   0.00029332  0.75023226  0.00025670
   0.99975490  0.87506694  0.12483010
   0.12425317  0.75012258  0.12611265
   0.12446312  0.87438035  0.00031984
   0.00052425  0.75109344  0.25068165
   0.99910678  0.87526850  0.37464303
   0.12493344  0.75094229  0.37499561
   0.12465991  0.87554666  0.24944598
   0.00081419  0.75120330  0.49917609
   0.99965996  0.87453847  0.62455332
   0.12552057  0.74895532  0.62434747
   0.12540468  0.87577761  0.50080974
   0.00068536  0.75095541  0.75053247
   0.00088015  0.87469485  0.87550703
   0.12502988  0.74949910  0.87503676
   0.12493492  0.87557526  0.75040821
   0.24982000  0.00026927  0.00036826
   0.24991066  0.12494444  0.12463253
   0.37587944  0.99979185  0.12411110
   0.37494579  0.12576992  0.00159011
   0.24996548  0.99973278  0.25085980
   0.24965261  0.12551686  0.37445770
   0.37623717  0.99907961  0.37499753
   0.37558259  0.12576019  0.25133803
   0.24922425  0.99994873  0.50028903
   0.24912553  0.12494920  0.62423618
   0.37515214  0.99937636  0.62424157
   0.37492417  0.12384931  0.50056172
   0.25014121  0.99984327  0.75029915
   0.24940028  0.12525812  0.87493063
   0.37418754  0.00056852  0.87423011
   0.37558456  0.12520357  0.74950200
   0.24978996  0.25093419  0.99961239
   0.24761470  0.37591736  0.12432454
   0.37566548  0.24971545  0.12611634
   0.37479731  0.37594223  0.99995038
   0.25107210  0.24899917  0.25066435
   0.25031695  0.37480434  0.37510864
   0.37452420  0.24955833  0.37472045
   0.37458702  0.37612525  0.24995370
   0.25029043  0.24898503  0.50027679
   0.24966649  0.37458275  0.62502436
   0.37512497  0.25216960  0.62496784
   0.37569920  0.37552553  0.50093435
   0.24979596  0.24976568  0.74941261
   0.25047459  0.37567682  0.87538610
   0.37467236  0.25037372  0.87470709
   0.37537075  0.37563761  0.75036634
   0.25046357  0.49930478  0.99916431
   0.24880668  0.62467659  0.12544379
   0.37483146  0.50013739  0.12576449
   0.37468306  0.62574101  0.00020686
   0.25067001  0.49990634  0.24910541
   0.24963388  0.62466355  0.37644977
   0.37410911  0.49921013  0.37547244
   0.37448963  0.62565159  0.25009560
   0.24915827  0.49820993  0.50030080
   0.24986446  0.62521264  0.62538600
   0.37507664  0.50008535  0.62612603
   0.37501226  0.62594070  0.50026457
   0.24896937  0.50039942  0.74993954
   0.25048920  0.62465866  0.87664451
   0.37454625  0.49898745  0.87502135
   0.37444758  0.62408641  0.74970212
   0.25074751  0.74975904  0.99927313
   0.24976704  0.87427200  0.12611204
   0.37362540  0.74791735  0.12526596
   0.37627154  0.87409228  0.00172211
   0.25178268  0.74994337  0.24975147
   0.25002166  0.87469772  0.37581660
   0.37677541  0.74949561  0.37550281
   0.37419077  0.87557398  0.24991593
   0.25138078  0.75019020  0.49985907
   0.24926298  0.87279679  0.62416118
   0.37424895  0.75044268  0.62492869
   0.37608426  0.87477904  0.49875247
   0.25104073  0.75025064  0.75039966
   0.24913694  0.87460574  0.87449819
   0.37484496  0.74946007  0.87539267
   0.37574662  0.87441165  0.75044276
   0.49913556  0.99997540  0.99930702
   0.49962017  0.12486272  0.12613522
   0.62588564  0.00082738  0.12621364
   0.62487980  0.12551615  0.99958564
   0.50055365  0.00128555  0.25105109
   0.49900656  0.12410642  0.37527054
   0.62531496  0.00104815  0.37443011
   0.62617915  0.12608064  0.25104241
   0.49974067  0.00009253  0.49976394
   0.50040464  0.12575144  0.62496290
   0.62452785  0.00067022  0.62403681
   0.62615231  0.12460586  0.49959005
   0.50089797  0.99989956  0.75136465
   0.50060489  0.12429424  0.87465038
   0.62476719  0.00114891  0.87409925
   0.62444038  0.12600681  0.75108770
   0.50133361  0.24909229  0.99920122
   0.49969968  0.37634291  0.12374829
   0.62468870  0.24916302  0.12406260
   0.62396907  0.37532812  0.00026032
   0.50056979  0.25085083  0.25154820
   0.49888746  0.37444935  0.37394320
   0.62469101  0.25113032  0.37501147
   0.62526088  0.37550622  0.24989699
   0.49992989  0.25145102  0.49951468
   0.49965383  0.37471663  0.62529316
   0.62483152  0.24861234  0.62524043
   0.62568969  0.37449797  0.49985222
   0.50017883  0.25047651  0.74829581
   0.50003195  0.37588095  0.87436872
   0.62494077  0.25050013  0.87526956
   0.62424244  0.37539018  0.74993333
   0.50010399  0.50009009  0.00012190
   0.50004296  0.62413902  0.12386111
   0.62498501  0.49963394  0.12333913
   0.62477367  0.62444882  0.99896823
   0.50045039  0.50023317  0.24951294
   0.49912000  0.62620369  0.37488850
   0.62429877  0.50085602  0.37529328
   0.62447402  0.62491162  0.24989366
   0.49994713  0.49929079  0.49997401
   0.50081240  0.62472426  0.62511298
   0.62615154  0.49893319  0.62413826
   0.62626977  0.62600905  0.49994589
   0.49963187  0.50041637  0.75209862
   0.50066097  0.62532188  0.87432448
   0.62477255  0.50110619  0.87463622
   0.62527603  0.62531886  0.75115205
   0.49972091  0.74870200  0.99996271
   0.50036308  0.87525869  0.12449124
   0.62682016  0.74999325  0.12560866
   0.62478265  0.87518922  0.99896333
   0.49971851  0.75076729  0.24990576
   0.49999933  0.87475325  0.37592428
   0.62398608  0.74916795  0.37568703
   0.62511635  0.87349254  0.24961037
   0.50033210  0.75048596  0.50019102
   0.50026625  0.87493440  0.62408032
   0.62477480  0.75015872  0.62629210
   0.62317982  0.87514426  0.49968194
   0.50129544  0.74936586  0.74969051
   0.50051235  0.87432692  0.87507909
   0.62351348  0.74871465  0.87475303
   0.62531986  0.87433306  0.74924553
   0.74899951  0.00044282  0.00256759
   0.74963262  0.12370130  0.12606414
   0.87498784  0.99930911  0.12517765
   0.87463882  0.12405308  0.00031304
   0.75007842  0.00031214  0.24875572
   0.75064324  0.12592330  0.37679063
   0.87490455  0.00004731  0.37569145
   0.87516551  0.12570887  0.24974260
   0.74953130  0.99951348  0.49949992
   0.75087354  0.12624061  0.62462879
   0.87472660  0.00061663  0.62466507
   0.87361988  0.12528866  0.49883566
   0.74974057  0.99814513  0.74948807
   0.74979113  0.12328741  0.87491975
   0.87502742  0.00073670  0.87570682
   0.87474878  0.12453468  0.75017603
   0.74897120  0.24998242  0.99846957
   0.75163196  0.37468070  0.12572097
   0.87556098  0.24900745  0.12512308
   0.87547231  0.37508748  0.99909204
   0.74970601  0.25099145  0.24965139
   0.74996206  0.37445463  0.37495406
   0.87435449  0.25081313  0.37524669
   0.87601077  0.37431925  0.24843023
   0.74981994  0.24953207  0.49926730
   0.74921394  0.37440618  0.62576427
   0.87414591  0.25069635  0.62516153
   0.87533823  0.37646005  0.50130456
   0.74954720  0.25055059  0.74958424
   0.74985578  0.37516597  0.87457845
   0.87431085  0.24870146  0.87665269
   0.87563374  0.37516580  0.75141086
   0.75015407  0.50050901  0.00019240
   0.74858502  0.62456081  0.12492638
   0.87625599  0.50077820  0.12474288
   0.87548348  0.62313964  0.00099321
   0.75046877  0.50012862  0.25063680
   0.75112908  0.62457765  0.37529399
   0.87524253  0.50003726  0.37439618
   0.87392694  0.62485725  0.25022970
   0.75011061  0.50088611  0.49966132
   0.75123254  0.62465917  0.62450359
   0.87276496  0.50078279  0.62428788
   0.87409295  0.62498962  0.49952335
   0.75026926  0.50118448  0.75013473
   0.75031698  0.62444477  0.87371247
   0.87428704  0.49992383  0.87507763
   0.87498601  0.62518483  0.74984646
   0.74979305  0.75052925  0.99984293
   0.74950076  0.87410205  0.12469339
   0.87512969  0.74976543  0.12568855
   0.87455013  0.87508734  0.00080143
   0.74959108  0.74955883  0.24896739
   0.75068636  0.87483356  0.37557683
   0.87441787  0.74882535  0.37684949
   0.87529542  0.87539803  0.25029356
   0.74783647  0.75060470  0.50152775
   0.75066972  0.87577886  0.62566851
   0.87486105  0.75012149  0.62458306
   0.87477191  0.87427682  0.49860115
   0.75051715  0.74929443  0.74989389
   0.74909538  0.87426604  0.87485789
   0.87522444  0.74905064  0.87457701
   0.87497349  0.87586922  0.75000833
Direct configuration=     4
   0.00007082  0.00084193  0.99842052
   0.99972785  0.12564230  0.12581573
   0.12555218  0.00175327  0.12543139
   0.12325280  0.12598830  0.99957501
   0.00062379  0.99904878  0.24917124
   0.00036843  0.12500312  0.37381702
   0.12456238  0.00004620  0.37424368
   0.12469567  0.12571130  0.24899685
   0.99878828  0.99840112  0.49877541
   0.99934623  0.12526476  0.62395745
   0.12462646  0.00015857  0.62551388
   0.12460758  0.12489349  0.49959345
   0.00084192  0.00110470  0.74846931