Li250                                   
           1
    17.430900    0.000000    0.000000
     0.000000   17.430900    0.000000
     0.000000    0.000000   17.430900
   Li
 250
Direct configuration=     1
   0.99503628  0.00340732  0.00259244
   0.09110566  0.12256268  0.11086350
   0.00770554  0.98963462  0.19301752
   0.08188819  0.09337225  0.29272626
   0.97763349  0.98614777  0.40438432
   0.08602292  0.09469581  0.51833130
   0.98218922  0.98985380  0.60026767
   0.08553180  0.09247981  0.70416945
   0.97497095  0.99704129  0.79716562
   0.09641582  0.10198190  0.89030134
   0.99696905  0.20234013  0.00439805
   0.10377125  0.31277774  0.09807541
   0.99823199  0.20679371  0.20772281
   0.10605952  0.29220147  0.28787070
   0.97550325  0.17700718  0.41254377
   0.10175744  0.28636174  0.48122847
   0.97992092  0.20955947  0.59362904
   0.09410803  0.27947952  0.69834393
   0.00164697  0.20267181  0.79931514
   0.11007478  0.27882574  0.87847943
   0.03268765  0.37412838  0.98161047
   0.11137822  0.47801483  0.09835426
   0.01299521  0.39291496  0.18941177
   0.10296714  0.47913992  0.29904149
   0.98702074  0.37206416  0.38512895
   0.08742663  0.46535057  0.48159210
   0.01317849  0.39993573  0.59317554
   0.11077072  0.53102387  0.69296634
   0.00313740  0.41969909  0.79807707
   0.10989807  0.50155666  0.89796865
   0.01558841  0.60377550  0.00014158
   0.10803378  0.70324317  0.10477625
   0.01201865  0.59685841  0.21603310
   0.10231867  0.70623695  0.29812783
   0.99026366  0.59580962  0.41384741
   0.10342286  0.71382817  0.48757601
   0.98418689  0.58415586  0.58369641
   0.09152899  0.70101953  0.68824713
   0.00687233  0.60608122  0.80033059
   0.11152012  0.72111292  0.90604352
   0.02783760  0.79691253  0.01136642
   0.11854938  0.88498539  0.11190385
   0.00436049  0.81155922  0.17725990
   0.08643007  0.90569572  0.29273457
   0.98899278  0.78803047  0.40288184
   0.09206640  0.90698605  0.52824734
   0.99753537  0.78818092  0.57835246
   0.10125706  0.91953936  0.71717029
   0.00379657  0.79795854  0.79425144
   0.08607090  0.91130140  0.89402558
   0.17271501  0.00011963  0.00963479
   0.28985784  0.12353088  0.09468101
   0.20114841  0.99985471  0.20086053
   0.30738249  0.08493386  0.30455100
   0.18066141  0.01282109  0.40657188
   0.28952261  0.08641308  0.48277107
   0.20280670  0.99970577  0.58292921
   0.29725239  0.09862247  0.68821780
   0.19546798  0.00838323  0.80033291
   0.30159303  0.09965164  0.89223562
   0.18158398  0.22149844  0.99620827
   0.27572739  0.29579794  0.09842877
   0.21327246  0.18683169  0.21545914
   0.29774316  0.29947024  0.30029761
   0.19718504  0.18457817  0.40118739
   0.30582735  0.30039638  0.49722087
   0.19476482  0.18929049  0.58781951
   0.29422713  0.29524811  0.69504641
   0.19994408  0.20617646  0.78765643
   0.29952316  0.28170849  0.89675368
   0.21379947  0.41018102  0.97826018
   0.32218977  0.51050404  0.11940541
   0.21442966  0.41093406  0.20844753
   0.31076980  0.51337494  0.31427845
   0.21347499  0.41418122  0.40234673
   0.30541851  0.49732417  0.50198020
   0.18683539  0.39583677  0.58964450
   0.30346010  0.50045950  0.69322524
   0.18717441  0.40274205  0.78810260
   0.30215761  0.51212925  0.89725211
   0.20378301  0.60304269  0.01042452
   0.28335416  0.69888667  0.09848543
   0.20120777  0.59024744  0.21057982
   0.29330223  0.70739173  0.31134099
   0.19665556  0.58392948  0.41937420
   0.29595981  0.71622487  0.52271191
   0.19207876  0.58750789  0.58624199
   0.29389383  0.67333215  0.70337260
   0.19039621  0.60198290  0.80497651
   0.28963580  0.70834118  0.90553853
   0.21042173  0.80985423  0.00423023
   0.29941247  0.93014634  0.09880274
   0.21020245  0.81466665  0.19839739
   0.30126101  0.90819211  0.31869625
   0.17624654  0.80957510  0.42071780
   0.29418226  0.90361246  0.49485525
   0.20989626  0.80498567  0.61341683
   0.29884469  0.90228019  0.71642210
   0.20954946  0.80608151  0.79590163
   0.29145478  0.91274050  0.88817142
   0.39313035  0.01930193  0.98245014
   0.49651601  0.07620721  0.09533032
   0.40131801  0.99869240  0.19762601
   0.51534977  0.09423478  0.30695785
   0.41003669  0.00340548  0.40499431
   0.50684654  0.09688566  0.50737109
   0.40911073  0.99515442  0.61076302
   0.50376248  0.10506248  0.69926427
   0.39908508  0.01070305  0.80188484
   0.50276775  0.09062965  0.90397818
   0.41031994  0.19812045  0.99279592
   0.50926922  0.30087704  0.11866481
   0.39173980  0.19048334  0.21052017
   0.50808810  0.27776787  0.31834311
   0.40985215  0.19251649  0.39046183
   0.53006964  0.30020652  0.50524230
   0.41588840  0.20020298  0.59872792
   0.48664342  0.28563008  0.70401223
   0.39917455  0.19205295  0.79439404
   0.48494080  0.30090009  0.91439950
   0.39428104  0.38584148  0.01566550
   0.49782466  0.49168235  0.09267625
   0.40295644  0.38675147  0.22659132
   0.49236256  0.51953636  0.30583171
   0.42337512  0.37956947  0.39514597
   0.51513240  0.48195683  0.48761805
   0.42127675  0.40168331  0.59715504
   0.50760246  0.50151328  0.70882200
   0.39037912  0.38204722  0.80411159
   0.50243061  0.48820237  0.88655415
   0.39506960  0.60804845  0.00141799
   0.48712953  0.72812770  0.09500423
   0.42427361  0.62373315  0.20299937
   0.48296889  0.72963197  0.30566419
   0.40214504  0.59906371  0.40267456
   0.49339068  0.70027130  0.51220323
   0.40135924  0.59441815  0.60287704
   0.51370786  0.68061732  0.70789872
   0.40272713  0.60135789  0.80952711
   0.49102625  0.68958325  0.88510107
   0.37687564  0.80212636  0.01017872
   0.49114721  0.90473101  0.09427862
   0.38360060  0.81529297  0.20252919
   0.47319904  0.91075374  0.29395826
   0.41134385  0.80119178  0.42554153
   0.51562151  0.89222272  0.51730842
   0.40742006  0.81188198  0.61612848
   0.49325714  0.89455086  0.72844373
   0.38434907  0.77624453  0.79283474
   0.50003361  0.89010032  0.90829808
   0.59220142  0.99284764  0.96616748
   0.68420124  0.10768719  0.10946031
   0.60888058  0.99166630  0.18969361
   0.71774775  0.09342045  0.28961804
   0.60529161  0.01379780  0.40228572
   0.69389181  0.09594203  0.51366601
   0.60406489  0.99554013  0.62588859
   0.70855590  0.11451287  0.72425921
   0.60391064  0.99092078  0.79359725
   0.70104682  0.10728713  0.91084831
   0.59145628  0.20460437  0.00810517
   0.71272504  0.31843768  0.10043391
   0.61423504  0.20068833  0.21364844
   0.70673497  0.31051302  0.28317472
   0.62026313  0.21374626  0.40045208
   0.71640853  0.32037366  0.50026639
   0.62002275  0.20364971  0.61059370
   0.70176042  0.29446990  0.70754075
   0.59541398  0.18379931  0.80002488
   0.70197559  0.29393751  0.89120298
   0.59923565  0.39858134  0.99652479
   0.68455015  0.50156224  0.09227032
   0.59116448  0.40433842  0.20203216
   0.69245499  0.50960420  0.31061980
   0.59984224  0.40580284  0.36365576
   0.71222360  0.49869517  0.48811754
   0.61643878  0.40981580  0.60860933
   0.69983484  0.51146419  0.73333525
   0.60295739  0.38410474  0.79107335
   0.68957627  0.48569962  0.89879408
   0.58154063  0.59835824  0.01698768
   0.69891541  0.70715593  0.09455798
   0.58261802  0.60088943  0.18920202
   0.68633057  0.71067460  0.27741582
   0.57439470  0.62017613  0.40070656
   0.68628035  0.69710105  0.50387280
   0.60968133  0.59749762  0.60438047
   0.71561697  0.67999843  0.70811356
   0.60368942  0.59379818  0.81602368
   0.69086228  0.67774239  0.89665731
   0.60858481  0.80564879  0.99618889
   0.70493988  0.90923909  0.08145441
   0.57982881  0.82291764  0.19319714
   0.70798929  0.91765614  0.29016637
   0.60861595  0.80516394  0.37689179
   0.69561973  0.90554947  0.46929495
   0.60768417  0.80058987  0.61567036
   0.71073422  0.89462361  0.72445909
   0.60211070  0.79191934  0.79719093
   0.69030058  0.91298647  0.88969688
   0.79908338  0.97998893  0.99238952
   0.90296029  0.10391780  0.09608065
   0.80346585  0.00443248  0.16476964
   0.88831321  0.08950780  0.28602143
   0.79643010  0.99921881  0.39878616
   0.87985359  0.08519950  0.51625194
   0.78900302  0.98235472  0.59759860
   0.88043152  0.09809644  0.68933673
   0.79938809  0.99152381  0.82247699
   0.91060854  0.12727452  0.90967881
   0.79599609  0.20599231  0.01491503
   0.90011432  0.30617432  0.09636147
   0.79861120  0.21289898  0.18912652
   0.87953373  0.29799104  0.29350278
   0.79417950  0.19962448  0.38660069
   0.90329833  0.30997393  0.49321011
   0.79157778  0.21553398  0.58529795
   0.88902637  0.31215965  0.70597919
   0.81215032  0.20335380  0.80400483
   0.90123416  0.30908029  0.91187421
   0.80271893  0.40661186  0.00044162
   0.92186419  0.48707021  0.09768016
   0.79866625  0.42090143  0.18097854
   0.90951277  0.49087497  0.27829188
   0.81325710  0.41342781  0.38481169
   0.88074246  0.48860549  0.50970839
   0.79951637  0.41939876  0.62792401
   0.90676572  0.50917555  0.69945758
   0.81452362  0.41074887  0.82349992
   0.93000479  0.50075118  0.92028108
   0.80711660  0.60240951  0.00005094
   0.90355490  0.70623294  0.09469104
   0.77954509  0.60817249  0.18533752
   0.89807745  0.71397517  0.27547382
   0.82619735  0.60615293  0.37071633
   0.88220406  0.69382639  0.50269771
   0.79127200  0.59167649  0.60286808
   0.91593687  0.69365382  0.68491544
   0.82800583  0.59445572  0.81910650
   0.92144163  0.69781190  0.90774302
   0.80716604  0.79543209  0.98390459
   0.89980095  0.89069692  0.08610379
   0.78361114  0.81354922  0.19913151
   0.89423658  0.89575338  0.28989616
   0.80254418  0.79523964  0.38645962
   0.88269047  0.88515256  0.50187931
   0.78953257  0.78358713  0.61135787
   0.91705135  0.87328737  0.68775989
   0.81819188  0.78181435  0.79301738
   0.91110145  0.89427467  0.92401069
Direct configuration=     2
   0.99441792  0.00260854  0.00232606
   0.09125182  0.12281282  0.11128779
   0.00792654  0.98951229  0.19287552
   0.08191259  0.09343757  0.29279985
   0.97798272  0.98609651  0.40402814
   0.08497591  0.09442740  0.51838247
   0.98261458  0.99045262  0.60086030
   0.08494113  0.09205743  0.70437555
   0.97481438  0.99636812  0.79704221
   0.09630846  0.10180551  0.89105728
   0.99699545  0.20170486  0.00481080
   0.10398619  0.31316619  0.09864294
   0.99832414  0.20619898  0.20713616
   0.10579338  0.29258343  0.28800302
   0.97573374  0.17749519  0.41256083
   0.10185886  0.28655478  0.48164356
   0.97966048  0.20885877  0.59383642
   0.09461182  0.27946937  0.69836138
   0.00177945  0.20271563  0.79969271
   0.11019054  0.27867272  0.87895281
   0.03270127  0.37363229  0.98191050
   0.11128135  0.47823843  0.09801286
   0.01335984  0.39284774  0.18941430
   0.10368567  0.47946573  0.29818008
   0.98706757  0.37241733  0.38474473
   0.08721930  0.46481666  0.48168149
   0.01351045  0.39959501  0.59347261
   0.11087233  0.53076718  0.69249429
   0.00285640  0.41943256  0.79775884
   0.10955854  0.50212246  0.89790600
   0.01589278  0.60363243  0.00028336
   0.10752583  0.70321095  0.10441332
   0.01243341  0.59692134  0.21593390
   0.10281636  0.70620331  0.29844437
   0.99058605  0.59616930  0.41362318
   0.10334713  0.71407156  0.48781960
   0.98452546  0.58419735  0.58377884
   0.09111020  0.70124301  0.68800195
   0.00747266  0.60606552  0.79995147
   0.11195115  0.72135467  0.90535292
   0.02842439  0.79679323  0.01108244
   0.11843738  0.88505829  0.11181098
   0.00403043  0.81205656  0.17726395
   0.08718017  0.90631352  0.29289107
   0.98941149  0.78794454  0.40292116
   0.09185067  0.90716165  0.52788613
   0.99724174  0.78836462  0.57802315
   0.10179202  0.91931995  0.71697129
   0.00363649  0.79843062  0.79342405
   0.08668515  0.91139635  0.89366020
   0.17297785  0.00001469  0.00933289
   0.28972770  0.12397059  0.09469604
   0.20188367  0.99939973  0.20050192
   0.30764621  0.08492021  0.30455345
   0.18050307  0.01293577  0.40645474
   0.28982297  0.08562199  0.48230799
   0.20257033  0.99967691  0.58284784
   0.29701161  0.09853812  0.68786512
   0.19491012  0.00832541  0.80068026
   0.30157059  0.10027491  0.89212861
   0.18143733  0.22105202  0.99688357
   0.27581766  0.29557569  0.09834546
   0.21232830  0.18708374  0.21573247
   0.29849640  0.29958075  0.30047579
   0.19752704  0.18403491  0.40111961
   0.30633701  0.30059265  0.49755334
   0.19481910  0.18933493  0.58805753
   0.29456097  0.29525849  0.69466834
   0.19933405  0.20598235  0.78725259
   0.29910514  0.28181693  0.89623814
   0.21388852  0.41009387  0.97793393
   0.32199301  0.51076656  0.11972583
   0.21448210  0.41100991  0.20810680
   0.31038881  0.51351428  0.31459251
   0.21350000  0.41382801  0.40294864
   0.30545666  0.49731700  0.50195433
   0.18666350  0.39640803  0.58968189
   0.30301399  0.50086854  0.69292590
   0.18679454  0.40230939  0.78791430
   0.30229519  0.51220029  0.89723148
   0.20357818  0.60262029  0.01044470
   0.28386982  0.69872402  0.09844530
   0.20052588  0.59045938  0.21033939
   0.29327594  0.70817849  0.31101513
   0.19663933  0.58401837  0.41949058
   0.29548792  0.71612318  0.52271081
   0.19192883  0.58783323  0.58622231
   0.29356785  0.67326449  0.70287116
   0.19105614  0.60172973  0.80539825
   0.28932937  0.70857396  0.90535115
   0.21076111  0.80908279  0.00418095
   0.29945820  0.93056774  0.09827769
   0.20997537  0.81459877  0.19827508
   0.30062025  0.90783044  0.31884722
   0.17643303  0.80984027  0.42035284
   0.29399152  0.90370313  0.49514044
   0.21034027  0.80506872  0.61408530
   0.29905433  0.90255449  0.71568061
   0.20922290  0.80590362  0.79573642
   0.29157584  0.91294599  0.88810372
   0.39305581  0.01942890  0.98268373
   0.49686026  0.07631805  0.09540149
   0.40174182  0.99900721  0.19799819
   0.51594222  0.09458166  0.30688850
   0.41006443  0.00308445  0.40518327
   0.50668874  0.09723916  0.50740423
   0.40907276  0.99558407  0.61089156
   0.50344890  0.10413456  0.69987128
   0.39918128  0.01064371  0.80151590
   0.50287860  0.09051103  0.90381159
   0.41021462  0.19812140  0.99337384
   0.50887571  0.30094758  0.11887731
   0.39145472  0.19048354  0.21084201
   0.50824674  0.27810947  0.31798382
   0.40999580  0.19274701  0.38951547
   0.52954793  0.30020859  0.50536400
   0.41605712  0.20046454  0.59848020
   0.48619719  0.28597098  0.70416469
   0.39935613  0.19166337  0.79439018
   0.48489986  0.30114167  0.91384028
   0.39383851  0.38560411  0.01514389
   0.49757620  0.49177772  0.09263709
   0.40319997  0.38604438  0.22647769
   0.49270043  0.51904029  0.30597878
   0.42323945  0.38022495  0.39546860
   0.51547027  0.48216820  0.48751645
   0.42116195  0.40142905  0.59739593
   0.50703276  0.50114026  0.70940364
   0.39053230  0.38221132  0.80419409
   0.50249346  0.48764105  0.88634320
   0.39472802  0.60768584  0.00181173
   0.48693663  0.72834410  0.09485159
   0.42402867  0.62337474  0.20320861
   0.48296787  0.72954529  0.30568637
   0.40284366  0.59835282  0.40284617
   0.49342927  0.70057849  0.51225169
   0.40157123  0.59475005  0.60275285
   0.51389523  0.68112472  0.70823986
   0.40229537  0.60104066  0.80941720
   0.49084485  0.68955669  0.88474596
   0.37693354  0.80177892  0.00944803
   0.49183264  0.90505027  0.09428942
   0.38296909  0.81557733  0.20230428
   0.47246412  0.91094622  0.29404267
   0.41162614  0.80064216  0.42523081
   0.51556211  0.89235408  0.51727720
   0.40732729  0.81197668  0.61592021
   0.49269547  0.89516056  0.72824280
   0.38405267  0.77555897  0.79281114
   0.50020483  0.88952979  0.90825910
   0.59209888  0.99275549  0.96713274
   0.68393522  0.10788673  0.10949321
   0.60927238  0.99210185  0.18978325
   0.71737516  0.09295161  0.28988983
   0.60488957  0.01355855  0.40217951
   0.69428932  0.09633644  0.51363974
   0.60396694  0.99546597  0.62673617
   0.70910133  0.11409721  0.72381712
   0.60420297  0.99106628  0.79370176
   0.70135322  0.10772420  0.91106531
   0.59149683  0.20457863  0.00834896
   0.71261203  0.31866294  0.09990078
   0.61399559  0.19993068  0.21394366
   0.70667706  0.31063811  0.28272118
   0.62039981  0.21396199  0.40005892
   0.71639847  0.32076787  0.50049034
   0.61971986  0.20383310  0.61147122
   0.70114924  0.29482552  0.70717637
   0.59554431  0.18317103  0.80032986
   0.70121139  0.29394812  0.89155149
   0.59906226  0.39893964  0.99605711
   0.68509307  0.50206693  0.09185623
   0.59132512  0.40476203  0.20203211
   0.69293547  0.51013220  0.31032710
   0.60066405  0.40591653  0.36363382
   0.71183440  0.49897504  0.48809844
   0.61643798  0.40973757  0.60813687
   0.70035256  0.51127923  0.73303058
   0.60314009  0.38469732  0.79103952
   0.68925035  0.48564231  0.89876629
   0.58160776  0.59851285  0.01680106
   0.69911630  0.70729776  0.09482509
   0.58280439  0.60052107  0.18910124
   0.68664571  0.71002516  0.27737858
   0.57458304  0.62000314  0.40025179
   0.68620224  0.69644507  0.50406375
   0.60983798  0.59741443  0.60489992
   0.71531960  0.68016410  0.70828998
   0.60375969  0.59396793  0.81607810
   0.69036491  0.67759338  0.89676722
   0.60791330  0.80600319  0.99625485
   0.70530641  0.90916752  0.08102638
   0.57982679  0.82283571  0.19314913
   0.70841650  0.91789385  0.29024872
   0.60818612  0.80460422  0.37700685
   0.69558691  0.90529166  0.46915839
   0.60753183  0.80065020  0.61602929
   0.71102007  0.89457335  0.72443573
   0.60195439  0.79183761  0.79703994
   0.69038580  0.91301325  0.89022260
   0.79962057  0.98042376  0.99291238
   0.90266420  0.10393084  0.09642701
   0.80319575  0.00453228  0.16491434
   0.88817064  0.08966458  0.28593162
   0.79639387  0.99955887  0.39868131
   0.87982594  0.08502750  0.51666566
   0.78867295  0.98243659  0.59721250
   0.88073952  0.09804926  0.69004205
   0.79991992  0.99142490  0.82263862
   0.91129092  0.12718751  0.91002072
   0.79550067  0.20579455  0.01489974
   0.89976376  0.30689813  0.09601430
   0.79843060  0.21218191  0.18896741
   0.87948885  0.29745279  0.29338275
   0.79447114  0.20001452  0.38679904
   0.90309859  0.31005060  0.49299077
   0.79159620  0.21542572  0.58528014
   0.88809520  0.31215141  0.70572549
   0.81228260  0.20381807  0.80342227
   0.90121354  0.30843761  0.91217335
   0.80270818  0.40627271  0.00100661
   0.92168562  0.48729171  0.09740699
   0.79839952  0.42108402  0.18118030
   0.90964010  0.49153920  0.27794717
   0.81346126  0.41235796  0.38480602
   0.88032154  0.48835147  0.50971992
   0.79959491  0.41898959  0.62798944
   0.90674917  0.50919851  0.69941649
   0.81459379  0.41112789  0.82393568
   0.93021475  0.50113227  0.92035646
   0.80756268  0.60246478  0.99976209
   0.90388245  0.70651234  0.09472304
   0.77881209  0.60778290  0.18530382
   0.89823244  0.71387447  0.27575617
   0.82604220  0.60657799  0.37077780
   0.88243147  0.69403803  0.50299508
   0.79103244  0.59140516  0.60373960
   0.91517345  0.69364333  0.68491320
   0.82836796  0.59480477  0.81870634
   0.92141507  0.69731454  0.90779393
   0.80713254  0.79516601  0.98413097
   0.89984813  0.89102822  0.08589653
   0.78356772  0.81381582  0.19969041
   0.89436585  0.89590629  0.28946292
   0.80302968  0.79535519  0.38701427
   0.88257446  0.88461589  0.50189195
   0.78963967  0.78375528  0.61161481
   0.91733329  0.87296810  0.68804949
   0.81846025  0.78239824  0.79290965
   0.91080327  0.89376806  0.92441542
Direct configuration=     3
   0.99381318  0.00182218  0.00207279
   0.09141066  0.12304741  0.11170178
   0.00812854  0.98940534  0.19271164
   0.08194416  0.09350755  0.29288860
   0.97834288  0.98605013  0.40368047
   0.08392531  0.09416099  0.51842158
   0.98303427  0.99105696  0.60145832
   0.08435654  0.09164576  0.70456703
   0.97465973  0.99570831  0.79692862
   0.09619785  0.10163000  0.89181944
   0.99704329  0.20108786  0.00523063
   0.10421734  0.31352363  0.09922839
   0.99839376  0.20561027  0.20654673
   0.10553660  0.29297010  0.28814979
   0.97597163  0.17799027  0.41256183
   0.10195205  0.28675201  0.48205999
   0.97940970  0.20815410  0.59405163
   0.09511446  0.27948094  0.69835854
   0.00188510  0.20276140  0.80005944
   0.11028880  0.27855318  0.87943223
   0.03270204  0.37316078  0.98220751
   0.11118577  0.47849121  0.09766659
   0.01370249  0.39277563  0.18943832
   0.10438997  0.47980312  0.29733276
   0.98713271  0.37278634  0.38435244
   0.08701021  0.46431357  0.48176183
   0.01381739  0.39924692  0.59379578
   0.11094685  0.53047621  0.69203032
   0.00258262  0.41914499  0.79743304
   0.10920984  0.50269231  0.89785122
   0.01620894  0.60349466  0.00043815
   0.10702621  0.70316571  0.10406716
   0.01284428  0.59698614  0.21581148
   0.10331365  0.70617569  0.29876422
   0.99091958  0.59652651  0.41337946
   0.10326204  0.71426655  0.48809567
   0.98489490  0.58425217  0.58386162
   0.09070827  0.70147076  0.68775548
   0.00807392  0.60604923  0.79958203
   0.11238145  0.72157382  0.90465495
   0.02898244  0.79669187  0.01078451
   0.11831312  0.88516211  0.11169642
   0.00369550  0.81253453  0.17730268
   0.08794032  0.90690805  0.29307002
   0.98982331  0.78786987  0.40294773
   0.09163676  0.90732237  0.52750432
   0.99695175  0.78854907  0.57770648
   0.10231820  0.91907899  0.71674537
   0.00348252  0.79889529  0.79261325
   0.08731276  0.91148010  0.89329571
   0.17325423  0.99992408  0.00902546
   0.28960296  0.12438020  0.09469521
   0.20260800  0.99895980  0.20015478
   0.30790434  0.08490389  0.30455843
   0.18033229  0.01302751  0.40632377
   0.29015541  0.08485336  0.48187234
   0.20233500  0.99965022  0.58280444
   0.29677503  0.09845307  0.68751923
   0.19436844  0.00827881  0.80102352
   0.30151611  0.10091444  0.89202931
   0.18129938  0.22057712  0.99755249
   0.27592883  0.29536742  0.09827638
   0.21136899  0.18733805  0.21600427
   0.29923739  0.29967862  0.30067324
   0.19786582  0.18350357  0.40103847
   0.30684614  0.30078116  0.49788568
   0.19487714  0.18938783  0.58829888
   0.29490132  0.29527401  0.69427880
   0.19874150  0.20575628  0.78684378
   0.29868436  0.28193556  0.89572942
   0.21397324  0.40998733  0.97762569
   0.32178807  0.51102025  0.12004029
   0.21453805  0.41107287  0.20776327
   0.31001009  0.51363910  0.31488750
   0.21352741  0.41344640  0.40353437
   0.30551314  0.49730123  0.50193716
   0.18650793  0.39697647  0.58973284
   0.30256444  0.50126011  0.69263899
   0.18642574  0.40187766  0.78772669
   0.30243943  0.51226464  0.89720745
   0.20336544  0.60218610  0.01044912
   0.28440256  0.69856567  0.09843175
   0.19984639  0.59067791  0.21009868
   0.29325128  0.70895748  0.31070202
   0.19661198  0.58413086  0.41958326
   0.29502675  0.71599950  0.52268539
   0.19178637  0.58816931  0.58618962
   0.29323621  0.67321297  0.70236346
   0.19172369  0.60148802  0.80582262
   0.28903257  0.70878599  0.90516254
   0.21108693  0.80832791  0.00412989
   0.29951059  0.93097316  0.09774341
   0.20975517  0.81452010  0.19817298
   0.29997114  0.90746535  0.31899644
   0.17664626  0.81013380  0.41996051
   0.29381551  0.90379071  0.49543150
   0.21076385  0.80516037  0.61475392
   0.29926958  0.90284777  0.71492124
   0.20887349  0.80571181  0.79557574
   0.29170228  0.91314109  0.88805689
   0.39297991  0.01952455  0.98293795
   0.49721343  0.07645624  0.09547189
   0.40214883  0.99934256  0.19837005
   0.51652523  0.09493178  0.30679478
   0.41009416  0.00276034  0.40538891
   0.50654175  0.09759878  0.50743629
   0.40902868  0.99600993  0.61100885
   0.50313668  0.10320224  0.70046763
   0.39928582  0.01057964  0.80114182
   0.50298553  0.09041891  0.90362496
   0.41009348  0.19811386  0.99397044
   0.50847268  0.30100391  0.11907866
   0.39118959  0.19049267  0.21114930
   0.50841251  0.27846255  0.31759014
   0.41011903  0.19297003  0.38860215
   0.52902084  0.30020780  0.50548564
   0.41619738  0.20071756  0.59821685
   0.48578466  0.28633365  0.70431796
   0.39953268  0.19127151  0.79439668
   0.48488724  0.30138417  0.91325421
   0.39339460  0.38537666  0.01461924
   0.49731495  0.49186626  0.09260858
   0.40345063  0.38535639  0.22634337
   0.49304232  0.51852286  0.30610942
   0.42308258  0.38089742  0.39580351
   0.51580852  0.48240099  0.48742187
   0.42103434  0.40116911  0.59764194
   0.50645738  0.50076314  0.70998032
   0.39068071  0.38239306  0.80427197
   0.50254619  0.48708401  0.88615348
   0.39439481  0.60732536  0.00220349
   0.48675759  0.72854178  0.09469973
   0.42374847  0.62301381  0.20340793
   0.48297545  0.72944239  0.30569936
   0.40353103  0.59766875  0.40304273
   0.49348360  0.70088905  0.51231205
   0.40179369  0.59508204  0.60261878
   0.51406907  0.68164359  0.70857148
   0.40185188  0.60070738  0.80928529
   0.49068396  0.68955754  0.88442926
   0.37700081  0.80144547  0.00870534
   0.49251195  0.90537336  0.09428157
   0.38233891  0.81585606  0.20206544
   0.47177139  0.91112381  0.29414200
   0.41188789  0.80010863  0.42491064
   0.51550412  0.89250038  0.51722832
   0.40722435  0.81205525  0.61571371
   0.49214235  0.89576513  0.72803449
   0.38376736  0.77489539  0.79279055
   0.50034401  0.88895119  0.90820433
   0.59201260  0.99267606  0.96814557
   0.68368523  0.10807449  0.10949855
   0.60964716  0.99253804  0.18988376
   0.71698854  0.09249024  0.29015780
   0.60448852  0.01330949  0.40206940
   0.69468987  0.09672969  0.51360431
   0.60387330  0.99538825  0.62756093
   0.70964967  0.11365488  0.72335638
   0.60447983  0.99123611  0.79381417
   0.70166223  0.10815066  0.91127774
   0.59154412  0.20455276  0.00858993
   0.71246788  0.31887276  0.09936650
   0.61374255  0.19918216  0.21423165
   0.70662285  0.31076905  0.28227881
   0.62054526  0.21415353  0.39967724
   0.71638009  0.32117213  0.50069744
   0.61939446  0.20401224  0.61234022
   0.70055958  0.29518841  0.70681908
   0.59566687  0.18257017  0.80065308
   0.70045370  0.29396041  0.89190831
   0.59888345  0.39928072  0.99559724
   0.68564127  0.50257139  0.09144565
   0.59149276  0.40519420  0.20202825
   0.69342529  0.51068087  0.31001504
   0.60147568  0.40601059  0.36364987
   0.71142666  0.49926608  0.48807755
   0.61643695  0.40965704  0.60767269
   0.70087968  0.51107881  0.73270607
   0.60330500  0.38528951  0.79101591
   0.68893451  0.48559853  0.89875370
   0.58167881  0.59868295  0.01658615
   0.69930490  0.70744511  0.09508390
   0.58300886  0.60016584  0.18901244
   0.68695964  0.70936641  0.27735314
   0.57479313  0.61982543  0.39978895
   0.68613864  0.69580078  0.50423594
   0.60998716  0.59731660  0.60541336
   0.71500655  0.68033672  0.70848069
   0.60380650  0.59413477  0.81611882
   0.68989425  0.67746672  0.89689330
   0.60724037  0.80634516  0.99631281
   0.70564720  0.90907989  0.08060959
   0.57984484  0.82273820  0.19310890
   0.70883534  0.91812502  0.29033272
   0.60774365  0.80405932  0.37713742
   0.69556004  0.90501702  0.46905934
   0.60738410  0.80070842  0.61639044
   0.71131170  0.89451587  0.72439287
   0.60180572  0.79175465  0.79689912
   0.69048119  0.91299095  0.89075920
   0.80016386  0.98090208  0.99342618
   0.90237160  0.10394806  0.09677497
   0.80292605  0.00462561  0.16508253
   0.88804431  0.08982183  0.28583819
   0.79637140  0.99990368  0.39858319
   0.87980079  0.08486778  0.51705943
   0.78833587  0.98251072  0.59684688
   0.88105499  0.09800637  0.69075050
   0.80047264  0.99134653  0.82277983
   0.91194668  0.12706373  0.91035337
   0.79500706  0.20559600  0.01486970
   0.89942896  0.30762162  0.09567320
   0.79825010  0.21144556  0.18880830
   0.87946660  0.29692119  0.29325072
   0.79476501  0.20039973  0.38701916
   0.90287993  0.31012556  0.49278599
   0.79162752  0.21530644  0.58527779
   0.88718518  0.31213709  0.70547019
   0.81241258  0.20428476  0.80285239
   0.90119712  0.30778765  0.91246292
   0.80269473  0.40594455  0.00156484
   0.92151017  0.48752981  0.09712265
   0.79813063  0.42126277  0.18140498
   0.90976643  0.49220350  0.27761680
   0.81364798  0.41128668  0.38479672
   0.87992077  0.48809609  0.50971198
   0.79965283  0.41856721  0.62804592
   0.90673502  0.50922038  0.69938416
   0.81465817  0.41150890  0.82434986
   0.93041094  0.50150317  0.92042613
   0.80800024  0.60250638  0.99947446
   0.90420730  0.70678097  0.09475764
   0.77811194  0.60737843  0.18527866
   0.89839561  0.71376861  0.27603315
   0.82586260  0.60699477  0.37085154
   0.88265540  0.69424754  0.50329178
   0.79080137  0.59113848  0.60460453
   0.91439973  0.69362436  0.68491984
   0.82871417  0.59515194  0.81830475
   0.92139092  0.69683105  0.90784874
   0.80707149  0.79489497  0.98435742
   0.89989344  0.89135473  0.08571059
   0.78353185  0.81407415  0.20022300
   0.89449832  0.89607036  0.28902843
   0.80349400  0.79546706  0.38756769
   0.88246273  0.88408474  0.50190357
   0.78974648  0.78393843  0.61185836
   0.91759159  0.87266930  0.68833835
   0.81872131  0.78298568  0.79282367
   0.91051655  0.89324901  0.92477794
Direct configuration=     4
   0.99322361  0.00104995  0.00183323
   0.09158246  0.12326484  0.11210437
   0.00831155  0.98931442  0.19252643
   0.08198257  0.09358182  0.29299217
   0.97871280  0.98600859  0.40334207
   0.08287385  0.09389733  0.51844853
   0.98344702  0.99166457  0.60206124
   0.08377875  0.09124549  0.70474410
   0.97450779  0.99506195  0.79682559
   0.09608398  0.10145579  0.89258659
   0.99711263  0.20049065  0.00565814
   0.10446504  0.31384909  0.09983037
   0.99844067  0.20502947  0.20595591
   0.10528922  0.29336055  0.28831109
   0.97621630  0.17849165  0.41254682
   0.10203720  0.28695236  0.48247708
   0.97916852  0.20744708  0.59427483
   0.09561420  0.27951391  0.69833519
   0.00196434  0.20280951  0.80041457
   0.11037007  0.27846631  0.87991728
   0.03268977  0.37271449  0.98250088
   0.11109145  0.47877228  0.09731595
   0.01402180  0.39269973  0.18948353
   0.10507940  0.48015129  0.29650159
   0.98721540  0.37317063  0.38395260
   0.08679938  0.46384248  0.48183239
   0.01409839  0.39889176  0.59414468
   0.11099491  0.53015195  0.69157589
   0.00231631  0.41883669  0.79710056
   0.10885267  0.50326421  0.89780418
   0.01653639  0.60336295  0.00060563